Pre-Calc Summary
--------------------------------------------
  date:                Sun Jul 21 15:19:39 BST 2024
  hostname:            IC-5CD3124HGQ
  system:              Linux IC-5CD3124HGQ 5.15.153.1-microsoft-standard-WSL2 #1 SMP Fri Mar 29 23:14:13 UTC 2024 x86_64 x86_64 x86_64 GNU/Linux
  user:                spica-vir
  input:               /home/spica-vir/topond_test/urea_crys_plt.d3
  output:              /home/spica-vir/topond_test/urea_crys_plt.out
  temporary directory: /home/spica-vir/topond_test/urea_crys_plt_tmpfile
  executable script:   /mnt/c/Users/hz1420/Documents/GitHub/Spica-Vir/HPC-job-submission/PC-Job-Submission/run_job
  executable dir:      module load CRYSTAL/23v1.0.1-intel
  mpi + exe command:   mpiexec -np 6 Pproperties
-------------------------------------------

Find input data: /home/spica-vir/topond_test/urea_crys_plt.d3
Find input reference: /home/spica-vir/topond_test/urea_crys.f9
Find input reference: /home/spica-vir/topond_test/urea_crys.f9
All files are synchonised.

Job Ready to Go
-------------------------------------------
  Job name       : urea_crys_plt
  Command        : mpiexec -np 6 Pproperties >> /home/spica-vir/topond_test/urea_crys_plt.out 2>&1
  Temporary dir  : /home/spica-vir/topond_test/urea_crys_plt_tmpfile
  List of files  : total 676
-rw-r--r-- 1 spica-vir spica-vir    163 Jul 21 15:19 INPUT
-rw-r--r-- 1 spica-vir spica-vir   7554 Jul 21 15:19 Job_script_urea_crys_plt
-rw-r--r-- 1 spica-vir spica-vir 336100 Jul 21 15:19 fort.20
-rw-r--r-- 1 spica-vir spica-vir 336100 Jul 21 15:19 fort.9
  Input script   :
TOPO
PL2D
6
0 -1 0
5
0 0 0
3
0 -1 1
3
0.5
30 15.0
1
-4.0 4.0 0.08
-4.0 4.0 0.08
1 1 1 1 1 1 1 1 1 1 1 1
urea  
0.0
2.0 0.0 0
2.2 1 1 1
36 0
END
-------------------------------------------

 PROCESS            0  OF            6  WORKING
 PROCESS            3  OF            6  WORKING
 PROCESS            4  OF            6  WORKING
 PROCESS            5  OF            6  WORKING
 PROCESS            1  OF            6  WORKING
 PROCESS            2  OF            6  WORKING

         
 *******************************************************************************
 *                                                                             *
 *                               CRYSTAL22                                     *
 *                      public : 1.0.1 - Jul 29th, 2021                        *
 *                       HTTP://WWW.CRYSTAL.UNITO.IT                           *
 *                                                                             *
 *                              MAIN AUTHORS                                   *
 *                                                                             *
 *  R. DOVESI(1,11), V.R. SAUNDERS(2), C. ROETTI(1,11), R. ORLANDO(1,11),      *
 *  C.M. ZICOVICH-WILSON(1,3), F. PASCALE(4), B. CIVALLERI(1,11),              *
 *  K. DOLL(5), N.M. HARRISON(6), I.J. BUSH(7), Ph. D'ARCO(8),                 *
 *  M. LLUNELL(9), M. CAUSA'(10), Y. NOEL(8), L. MASCHIO(1,11), A. ERBA(1,11)  *
 *  M. RE'RAT(14), S. CASASSA(1,11), B.G. SEARLE(2), J.K. DESMARAIS(1)         *
 *                                                                             *
 *        CONTRIBUTIONS TO THE CODE HAVE ALSO BEEN GIVEN BY                    *
 *                                                                             *
 *  M. FERRABONE(1,11), M. DE LA PIERRE(1,11), M. FERRERO(1,11),               *
 *  J. BAIMA(1,11), E. ALBANESE(1,11), M.F. PEINTINGER(12), R. BAST(13),       *
 *  B. KIRTMAN(15), V. LACIVITA(1,11), R. DEMICHELIS(1,16)                     *
 *  G. BRANDEBURG(17), S. SALUSTRO(1,11), G. SANSONE(1,11)                     *
 *  M.T. RUGGIERO(18), L.E. DAGA(1), L. DONA'(1), A. COSSARD(1)                *
 *                                                                             *
 * (1) THEORETICAL CHEMISTRY GROUP - UNIVERSITA' DI TORINO - TORINO (ITALY)    *
 * (2) SCIENTIFIC COMPUTING DEPARTMENT - STFC DARESBURY (UK)                   *
 * (3) UNIVERSIDAD AUTONOMA DEL ESTADO DE MORELOS - CUERNAVACA (MEXICO)        *
 * (4) UNIVERSITE' DE LORRAINE - NANCY (FRANCE)                                *
 * (5) UNIVERSITAET STUTTGART- STUTTGART (GERMANY)                             *
 * (6) IMPERIAL COLLEGE - LONDON (UK)                                          *
 * (7) SCIENTIFIC COMPUTING DEPARTMENT - STFC RAL (UK)                         *
 * (8) UPMC - SORBONNE UNIVERSITES - PARIS (FRANCE)                            *
 * (9) UNIVERSIDAD DE BARCELONA - BARCELONA (SPAIN)                            *
 *(10) UNIVERSITA' DI NAPOLI "FEDERICO II" - NAPOLI (ITALY)                    *
 *(11) NIS - NANOSTRUCTURED INTERFACES AND SURFACES - TORINO (ITALY)           *
 *(12) MPI FUER CHEMISCHE ENERGIEKONVERSION - MUELHEIM AN DER RUHR (GERMANY)   *
 *(13) UNIVERSITY OF TROMSO - TROMSO (NORWAY)                                  *
 *(14) UNIVERSITE' DE PAU ET DES PAYS DE L'ADOUR - PAU (FRANCE)                *
 *(15) UNIVERSITY OF CALIFORNIA SANTA BARBARA - SANTA BARBARA (USA)            *
 *(16) CURTIN UNIVERSITY - PERTH (AUSTRALIA)                                   *
 *(17) UNIVERSITY COLLEGE LONDON - LONDON (UK)                                 *
 *(18) UNIVERSITY OF VERMONT - BURLINGTON (USA)                                *
 *                                                                             *
 *******************************************************************************
 EEEEEEEEEE STARTING  DATE 21 07 2024 TIME 15:19:40.4
 INFORMATION **** SET_MPP **** PCRYSTAL CALCULATION

 *******************************************************************************
 TEST12 - UREA BULK BASE 6-21 + POLARIZATION                                     
 CRYSTAL - PROPERTIES - TYPE OF CALCULATION :  RESTRICTED CLOSED SHELL
 *******************************************************************************
 HARTREE-FOCK HAMILTONIAN

 DIRECT LATTICE VECTOR COMPONENTS (ANGSTROM)
         5.56500    0.00000    0.00000
         0.00000    5.56500    0.00000
         0.00000    0.00000    4.68400

 LATTICE PARAMETERS  (ANGSTROM AND DEGREES) - PRIMITIVE CELL
       A          B          C         ALPHA      BETA     GAMMA        VOLUME
    5.56500    5.56500    4.68400     90.0000   90.0000   90.0000     145.05985
 *******************************************************************************
 N. OF ATOMS PER CELL        16 COULOMB OVERLAP TOL          (T1) 10**   -6
 NUMBER OF SHELLS            56 COULOMB PENETRATION TOL      (T2) 10**   -6
 NUMBER OF AO               152 EXCHANGE OVERLAP TOL         (T3) 10**   -6
 N. OF ELECTRONS PER CELL    64 EXCHANGE PSEUDO OVP (F(G))   (T4) 10**   -6
 CORE ELECTRONS PER CELL     16 EXCHANGE PSEUDO OVP (P(G))   (T5) 10**  -12
 N. OF SYMMETRY OPERATORS     8 POLE ORDER IN MONO ZONE                   4
 *******************************************************************************
   ATOM N.AT.  SHELL    X(A)      Y(A)      Z(A)      EXAD       N.ELECT.
 *******************************************************************************
    1    6 C     4     0.000     2.783     1.527   8.000E-01       4.804
    2    6 C     4     2.783     0.000    -1.527   8.000E-01       4.804
    3    8 O     4     0.000     2.783    -1.896   8.000E-01       8.780
    4    8 O     4     2.783     0.000     1.896   8.000E-01       8.780
    5    7 N     4     0.812    -1.971     0.827   8.000E-01       7.749
    6    7 N     4    -0.812     1.971     0.827   8.000E-01       7.749
    7    7 N     4    -1.971    -0.812    -0.827   8.000E-01       7.749
    8    7 N     4     1.971     0.812    -0.827   8.000E-01       7.749
    9    1 H     3     1.433    -1.350     1.324   1.100E+00       0.730
   10    1 H     3    -1.433     1.350     1.324   1.100E+00       0.730
   11    1 H     3    -1.350    -1.433    -1.324   1.100E+00       0.730
   12    1 H     3     1.350     1.433    -1.324   1.100E+00       0.730
   13    1 H     3     0.802    -1.981    -0.178   1.100E+00       0.729
   14    1 H     3    -0.802     1.981    -0.178   1.100E+00       0.729
   15    1 H     3    -1.981    -0.802     0.178   1.100E+00       0.729
   16    1 H     3     1.981     0.802     0.178   1.100E+00       0.729
 *******************************************************************************
 DE(K)                   0.000E+00  ENERGY LEVEL SHIFTING        0.00000
 TOTAL ENERGY -4.4768124599865E+02  CONVERGENCE ON ENER       -7.140E-08
 KIN. ENERGY   4.4702075585503E+02  VIR. COEFF.           9.99261776E-01
 N. OF SCF CYCLES                9  FERMI ENERGY              -0.384E+00
 WEIGHT OF F(I) IN F(I+1)      30
 SHRINK. FACT.(MONKH.)     2  2  2  SHRINKING FACTOR(GILAT NET)        2
 NUMBER OF K POINTS IN THE IBZ   6  CELL VOLUME (A.U.)        978.912403
 *******************************************************************************

 GCALCO - MAX INDICES DIRECT LATTICE VECTOR    14    14    16
 NO.OF VECTORS CREATED 6999 STARS  525 RMAX   117.81283 BOHR
 TTTTTTTTTTTTTTTTTTTTTTTTTTTTTT gordsh1     TELAPSE        0.89 TCPU        0.36

 MATRIX SIZE: P(G)  108364, F(G)   18098, P(G) IRR   10907, F(G) IRR    4245
 MAX G-VECTOR INDEX FOR 1- AND 2-ELECTRON INTEGRALS  81


 CAPPA:IS1  2;IS2  2;IS3  2; K PTS MONK NET   6; SYMMOPS:K SPACE  16;G SPACE   8

 *******************************************************************************
 *                                                                             *
 *                              T O P O N D  2 0 2 1                           *
 *                                                                             *
 *           AN ELECTRON DENSITY TOPOLOGICAL ANALYSIS PROGRAM FOR              *
 *                 SYSTEMS PERIODIC IN N (N=0-3) DIMENSIONS                    *
 *                                                                             *
 *               USER MANUAL BY CARLO GATTI AND SILVIA CASASSA                 *
 *                                                                             *
 *            CNR-ISTM, ISTITUTO DI SCIENZE E TECNOLOGIE MOLECOLARI            *
 *                   VIA GOLGI 19  - I-20133 MILANO - ITALIA                   *
 *                     E-MAIL: c.gatti@istm.cnr.it                             *
 *                                                                             *
 *******************************************************************************

  TOPOND PARAMETER 

  LIM016 [INF24]        =       1000
  LIM015 [INF20]        =         56
  LIM035 [LIM016*INF5]  =     525000
  NTOMAX [LIM016*INF5]  =     525000
  INF79  [INF79]        =       6999
  MAXGSTAR [INF2*INF5]  =        384

 *******************************************************************************
 *******************************************************************************
 *                                                                             *
 *               TOPOND GENERALISATION TO F AND G ATOMIC ORBITALS              *
 *                                                                             *
 *                     BY ALESSANDRO COSSARD, JACQUES DESMARAIS                *
 *                            AND ALESSANDRO ERBA                              *
 *                                                                             *
 *      PLEASE CITE: A. Cossard, J. K. Desmarais, S.Casassa, C. Gatti and      *
 *            A. Erba, J. Phys. Chem. Lett., 12, 1862-1868 (2021)              *
 *                                                                             *
 *******************************************************************************

CRYSTAL INFORMATION ON THE REFERENCE SYSTEM:

 DIRECT LATTICE VECTOR COMPONENTS (BOHR)
        10.51633    0.00000    0.00000
         0.00000   10.51633    0.00000
         0.00000    0.00000    8.85148

 LATTICE PARAMETERS  (BOHR AND DEGREES) - PRIMITIVE CELL
        A           B           C        ALPHA        BETA       GAMMA       VOLUME
    10.51633    10.51633     8.85148    90.00000    90.00000    90.00000   978.91240
 *******************************************************************************
 N. OF ATOMS PER CELL       16  COULOMB OVERLAP TOL         (T1) 10** -6
 NUMBER OF SHELLS           56  COULOMB PENETRATION TOL     (T2) 10** -6
 NUMBER OF AO              152  EXCHANGE OVERLAP TOL        (T3) 10** -6
 N. OF ELECTRONS PER CELL    64 EXCHANGE PSEUDO OVP (F(G))  (T4) 10** -6
 CORE ELECTRONS PER CELL    16  EXCHANGE PSEUDO OVP (P(G))  (T5) 10**-12
 N. OF SYMMETRY OPERATORS    8  POLE ORDER IN MONO ZONE                4
 *******************************************************************************
  ATOM  SHEL    X(AU)     Y(AU)     Z(AU)
 *******************************************************************************
    6 C    4     0.000     5.258     2.886
    6 C    4     5.258     0.000    -2.886
    8 O    4     0.000     5.258    -3.582
    8 O    4     5.258     0.000     3.582
    7 N    4     1.534    -3.724     1.563
    7 N    4    -1.534     3.724     1.563
    7 N    4    -3.724    -1.534    -1.563
    7 N    4     3.724     1.534    -1.563
    1 H    3     2.708    -2.550     2.502
    1 H    3    -2.708     2.550     2.502
    1 H    3    -2.550    -2.708    -2.502
    1 H    3     2.550     2.708    -2.502
    1 H    3     1.515    -3.743    -0.336
    1 H    3    -1.515     3.743    -0.336
    1 H    3    -3.743    -1.515     0.336
    1 H    3     3.743     1.515     0.336
 *******************************************************************************
 DE(K)                  0.000E+00  CONVERGENCE ON EIGENVALUES   10**-17
 WEIGHT OF F(I) IN F(I+1)     30%  CONVERGENCE ON ENERGY        10**- 7
 TOTAL ENERGY     -4.47681246E+02  FERMI ENERGY              -3.844E-01
 KIN. ENERGY       4.47020756E+02  VIR. COEFF.           9.99261776E-01
 SHRINK. FACT.(MONKH.)    2  2  2  STARS FOR FOURIER EXP. OF E(K)     1
 SHRINKING FACTOR (GILAT NET)   2  NUMBER OF K POINTS IN THE IBZ      6
 CELL VOLUME (A.U.)         978.912N. OF SCF CYCLES                   9
 ENERGY LEVEL SHIFTING    0.00000
 *******************************************************************************


***** T O P O L O G I C A L  A N A L I S Y S : P L O T 2 D   S E C T I O N  ****


 COORD. OF ATOMS (POINTS) A,B,C     :-1.534E+00 -6.792E+00  1.563E+00
                                      1.534E+00 -3.724E+00  1.563E+00
                                      0.000E+00 -5.258E+00  5.269E+00
 ORIGIN AT ( AU; SYSTEM REF. FRAME) : 0.000E+00 -5.258E+00  1.563E+00
 ISHFT                              : 3
 ICONT                              : 1
 CLUSTER BUILDING/NUMBER OF STARS   :30
 CLUSTER BUILDING/SPHERE RADIUS(ANG): 1.500E+01

 *** CLUSTERS AROUND A,B,C ATOMS (POINTS) ***
(DIST. REFERS TO THE CENTER OF THE CLUSTER)

 ATOM (POINT) N.     1 CLUSTER OF    49 ATOMS
 SEQ. NO.
 NEW  OLD  CELL    AT. NO.        COORD. (AU)           DISTANCE (ANG)
     1      14       0    -1     0       1     -1.515  -6.774  -0.336          1.005
     2      10       0    -1     0       1     -2.708  -7.966   2.502          1.009
     3       1       0    -1     0       6      0.000  -5.258   2.886          1.345
     4       3       0    -1     1       8      0.000  -5.258   5.269          2.273
     5       5       0     0     0       7      1.534  -3.724   1.563          2.296
     6      13       0     0     0       1      1.515  -3.743  -0.336          2.494
     7       3       0    -1     0       8      0.000  -5.258  -3.582          2.955
     8       4      -1    -1     0       8     -5.258 -10.516   3.582          2.985
     9      15       0    -1     0       1     -3.743 -12.032   0.336          3.078
    10      16      -1    -1     0       1     -6.774  -9.001   0.336          3.078
    11      15       0     0     0       1     -3.743  -1.515   0.336          3.096
    12      16       0    -1     0       1      3.743  -9.001   0.336          3.096
    13      11       0     0     0       1     -2.550  -2.708  -2.502          3.097
    14      12       0    -1     0       1      2.550  -7.808  -2.502          3.097
    15       9       0     0     0       1      2.708  -2.550   2.502          3.213
    16      11       0     0     1       1     -2.550  -2.708   6.349          3.373
    17      12       0    -1     1       1      2.550  -7.808   6.349          3.373
    18       7       0     0     0       7     -3.724  -1.534  -1.563          3.438
    19       7       0    -1     0       7     -3.724 -12.051  -1.563          3.438
    20       8       0    -1     0       7      3.724  -8.982  -1.563          3.438
    21       8      -1    -1     0       7     -6.792  -8.982  -1.563          3.438
    22       2      -1    -1     1       6     -5.258 -10.516   5.966          3.632
    23       2      -1    -1     0       6     -5.258 -10.516  -2.886          3.648
    24      14       0    -1     1       1     -1.515  -6.774   8.515          3.679
    25       9      -1     0     0       1     -7.808  -2.550   2.502          4.039
    26       9       0    -1     0       1      2.708 -13.067   2.502          4.039
    27      11       0    -1     0       1     -2.550 -13.224  -2.502          4.062
    28      12      -1    -1     0       1     -7.966  -7.808  -2.502          4.062
    29       1       0    -1    -1       6      0.000  -5.258  -5.966          4.146
    30       4      -1     0     0       8     -5.258   0.000   3.582          4.236
    31       4       0    -1     0       8      5.258 -10.516   3.582          4.236
    32       5      -1     0     0       7     -8.982  -3.724   1.563          4.263
    33       5       0    -1     0       7      1.534 -14.240   1.563          4.263
    34       7       0     0     1       7     -3.724  -1.534   7.288          4.274
    35       7       0    -1     1       7     -3.724 -12.051   7.288          4.274
    36       8       0    -1     1       7      3.724  -8.982   7.288          4.274
    37       8      -1    -1     1       7     -6.792  -8.982   7.288          4.274
    38      11       0    -1     1       1     -2.550 -13.224   6.349          4.276
    39      12      -1    -1     1       1     -7.966  -7.808   6.349          4.276
    40      10       0    -1    -1       1     -2.708  -7.966  -6.349          4.278
    41      13       0     0     1       1      1.515  -3.743   8.515          4.329
    42      13      -1     0     0       1     -9.001  -3.743  -0.336          4.385
    43      13       0    -1     0       1      1.515 -14.259  -0.336          4.385
    44       4      -1    -1    -1       8     -5.258 -10.516  -5.269          4.565
    45       6       0    -1    -1       7     -1.534  -6.792  -7.288          4.684
    46       6       0    -1     1       7     -1.534  -6.792  10.415          4.684
    47       2      -1     0     1       6     -5.258   0.000   5.966          4.715
    48       2       0    -1     1       6      5.258 -10.516   5.966          4.715

 ATOM (POINT) N.     2 CLUSTER OF    49 ATOMS
 SEQ. NO.
 NEW  OLD  CELL    AT. NO.        COORD. (AU)           DISTANCE (ANG)
     1      13       0     0     0       1      1.515  -3.743  -0.336          1.005
     2       9       0     0     0       1      2.708  -2.550   2.502          1.009
     3       1       0    -1     0       6      0.000  -5.258   2.886          1.345
     4       3       0    -1     1       8      0.000  -5.258   5.269          2.273
     5       6       0    -1     0       7     -1.534  -6.792   1.563          2.296
     6      14       0    -1     0       1     -1.515  -6.774  -0.336          2.494
     7       3       0    -1     0       8      0.000  -5.258  -3.582          2.955
     8       4       0     0     0       8      5.258   0.000   3.582          2.985
     9      15       1     0     0       1      6.774  -1.515   0.336          3.078
    10      16       0     0     0       1      3.743   1.515   0.336          3.078
    11      15       0     0     0       1     -3.743  -1.515   0.336          3.096
    12      16       0    -1     0       1      3.743  -9.001   0.336          3.096
    13      11       0     0     0       1     -2.550  -2.708  -2.502          3.097
    14      12       0    -1     0       1      2.550  -7.808  -2.502          3.097
    15      10       0    -1     0       1     -2.708  -7.966   2.502          3.213
    16      11       0     0     1       1     -2.550  -2.708   6.349          3.373
    17      12       0    -1     1       1      2.550  -7.808   6.349          3.373
    18       7       0     0     0       7     -3.724  -1.534  -1.563          3.438
    19       7       1     0     0       7      6.792  -1.534  -1.563          3.438
    20       8       0     0     0       7      3.724   1.534  -1.563          3.438
    21       8       0    -1     0       7      3.724  -8.982  -1.563          3.438
    22       2       0     0     1       6      5.258   0.000   5.966          3.632
    23       2       0     0     0       6      5.258   0.000  -2.886          3.648
    24      13       0     0     1       1      1.515  -3.743   8.515          3.679
    25      10       0     0     0       1     -2.708   2.550   2.502          4.039
    26      10       1    -1     0       1      7.808  -7.966   2.502          4.039
    27      11       1     0     0       1      7.966  -2.708  -2.502          4.062
    28      12       0     0     0       1      2.550   2.708  -2.502          4.062
    29       1       0    -1    -1       6      0.000  -5.258  -5.966          4.146
    30       4      -1     0     0       8     -5.258   0.000   3.582          4.236
    31       4       0    -1     0       8      5.258 -10.516   3.582          4.236
    32       6       0     0     0       7     -1.534   3.724   1.563          4.263
    33       6       1    -1     0       7      8.982  -6.792   1.563          4.263
    34       7       0     0     1       7     -3.724  -1.534   7.288          4.274
    35       7       1     0     1       7      6.792  -1.534   7.288          4.274
    36       8       0     0     1       7      3.724   1.534   7.288          4.274
    37       8       0    -1     1       7      3.724  -8.982   7.288          4.274
    38      11       1     0     1       1      7.966  -2.708   6.349          4.276
    39      12       0     0     1       1      2.550   2.708   6.349          4.276
    40       9       0     0    -1       1      2.708  -2.550  -6.349          4.278
    41      14       0    -1     1       1     -1.515  -6.774   8.515          4.329
    42      14       0     0     0       1     -1.515   3.743  -0.336          4.385
    43      14       1    -1     0       1      9.001  -6.774  -0.336          4.385
    44       4       0     0    -1       8      5.258   0.000  -5.269          4.565
    45       5       0     0    -1       7      1.534  -3.724  -7.288          4.684
    46       5       0     0     1       7      1.534  -3.724  10.415          4.684
    47       2      -1     0     1       6     -5.258   0.000   5.966          4.715
    48       2       0    -1     1       6      5.258 -10.516   5.966          4.715

 ATOM (POINT) N.     3 CLUSTER OF    85 ATOMS
 SEQ. NO.
 NEW  OLD  CELL    AT. NO.        COORD. (AU)           DISTANCE (ANG)
     1       1       0    -1     0       6      0.000  -5.258   2.886          1.261
     2      11       0     0     1       1     -2.550  -2.708   6.349          1.992
     3      12       0    -1     1       1      2.550  -7.808   6.349          1.992
     4      13       0     0     1       1      1.515  -3.743   8.515          2.058
     5      14       0    -1     1       1     -1.515  -6.774   8.515          2.058
     6       5       0     0     0       7      1.534  -3.724   1.563          2.273
     7       6       0    -1     0       7     -1.534  -6.792   1.563          2.273
     8       9       0     0     0       1      2.708  -2.550   2.502          2.500
     9      10       0    -1     0       1     -2.708  -7.966   2.502          2.500
    10       5       0     0     1       7      1.534  -3.724  10.415          2.955
    11       6       0    -1     1       7     -1.534  -6.792  10.415          2.955
    12       7       0     0     1       7     -3.724  -1.534   7.288          2.985
    13       8       0    -1     1       7      3.724  -8.982   7.288          2.985
    14      13       0     0     0       1      1.515  -3.743  -0.336          3.176
    15      14       0    -1     0       1     -1.515  -6.774  -0.336          3.176
    16       1       0    -1     1       6      0.000  -5.258  11.737          3.423
    17      15       0     0     1       1     -3.743  -1.515   9.188          3.485
    18      16       0    -1     1       1      3.743  -9.001   9.188          3.485
    19       9       0     0     1       1      2.708  -2.550  11.354          3.804
    20      10       0    -1     1       1     -2.708  -7.966  11.354          3.804
    21      15       0     0     0       1     -3.743  -1.515   0.336          3.829
    22      16       0    -1     0       1      3.743  -9.001   0.336          3.829
    23       2       0     0     1       6      5.258   0.000   5.966          3.952
    24       2      -1     0     1       6     -5.258   0.000   5.966          3.952
    25       2       0    -1     1       6      5.258 -10.516   5.966          3.952
    26       2      -1    -1     1       6     -5.258 -10.516   5.966          3.952
    27       4       0     0     0       8      5.258   0.000   3.582          4.035
    28       4      -1     0     0       8     -5.258   0.000   3.582          4.035
    29       4       0    -1     0       8      5.258 -10.516   3.582          4.035
    30       4      -1    -1     0       8     -5.258 -10.516   3.582          4.035
    31       7       1     0     1       7      6.792  -1.534   7.288          4.236
    32       7       0    -1     1       7     -3.724 -12.051   7.288          4.236
    33       8       0     0     1       7      3.724   1.534   7.288          4.236
    34       8      -1    -1     1       7     -6.792  -8.982   7.288          4.236
    35      11       1     0     1       1      7.966  -2.708   6.349          4.463
    36      11       0    -1     1       1     -2.550 -13.224   6.349          4.463
    37      12       0     0     1       1      2.550   2.708   6.349          4.463
    38      12      -1    -1     1       1     -7.966  -7.808   6.349          4.463
    39      11       0     0     0       1     -2.550  -2.708  -2.502          4.534
    40      12       0    -1     0       1      2.550  -7.808  -2.502          4.534
    41       7       0     0     0       7     -3.724  -1.534  -1.563          4.565
    42       8       0    -1     0       7      3.724  -8.982  -1.563          4.565
    43      15       1     0     1       1      6.774  -1.515   9.188          4.590
    44      15       0    -1     1       1     -3.743 -12.032   9.188          4.590
    45      16       0     0     1       1      3.743   1.515   9.188          4.590
    46      16      -1    -1     1       1     -6.774  -9.001   9.188          4.590
    47       9      -1     0     0       1     -7.808  -2.550   2.502          4.612
    48       9       0    -1     0       1      2.708 -13.067   2.502          4.612
    49      10       0     0     0       1     -2.708   2.550   2.502          4.612
    50      10       1    -1     0       1      7.808  -7.966   2.502          4.612
    51       3       0    -1     0       8      0.000  -5.258  -3.582          4.684
    52       3       0    -1     2       8      0.000  -5.258  14.121          4.684
    53      15       1     0     0       1      6.774  -1.515   0.336          4.856
    54      15       0    -1     0       1     -3.743 -12.032   0.336          4.856
    55      16       0     0     0       1      3.743   1.515   0.336          4.856
    56      16      -1    -1     0       1     -6.774  -9.001   0.336          4.856
    57      13      -1     0     1       1     -9.001  -3.743   8.515          5.126
    58      13       0    -1     1       1      1.515 -14.259   8.515          5.126
    59      14       0     0     1       1     -1.515   3.743   8.515          5.126
    60      14       1    -1     1       1      9.001  -6.774   8.515          5.126
    61       7       1    -1     1       7      6.792 -12.051   7.288          5.194
    62       8      -1     0     1       7     -6.792   1.534   7.288          5.194
    63       5      -1     0     0       7     -8.982  -3.724   1.563          5.205
    64       5       0    -1     0       7      1.534 -14.240   1.563          5.205
    65       6       0     0     0       7     -1.534   3.724   1.563          5.205
    66       6       1    -1     0       7      8.982  -6.792   1.563          5.205
    67       9      -1     0     1       1     -7.808  -2.550  11.354          5.431
    68       9       0    -1     1       1      2.708 -13.067  11.354          5.431
    69      10       0     0     1       1     -2.708   2.550  11.354          5.431
    70      10       1    -1     1       1      7.808  -7.966  11.354          5.431
    71       4       0     0     1       8      5.258   0.000  12.434          5.464
    72       4      -1     0     1       8     -5.258   0.000  12.434          5.464
    73       4       0    -1     1       8      5.258 -10.516  12.434          5.464
    74       4      -1    -1     1       8     -5.258 -10.516  12.434          5.464
    75       7       1     0     0       7      6.792  -1.534  -1.563          5.466
    76       7       0    -1     0       7     -3.724 -12.051  -1.563          5.466
    77       8       0     0     0       7      3.724   1.534  -1.563          5.466
    78       8      -1    -1     0       7     -6.792  -8.982  -1.563          5.466
    79      15       1    -1     1       1      6.774 -12.032   9.188          5.477
    80      16      -1     0     1       1     -6.774   1.515   9.188          5.477
    81       5      -1     0     1       7     -8.982  -3.724  10.415          5.538
    82       5       0    -1     1       7      1.534 -14.240  10.415          5.538
    83       6       0     0     1       7     -1.534   3.724  10.415          5.538
    84       6       1    -1     1       7      8.982  -6.792  10.415          5.538

 *** ATOMS (POINTS): AT. N. AND TRASFORMED COORD.(AU) IN THE PLOT REF. FRAME ***

      7      -2.1699E+00       2.2204E-16      -3.2579E-16
      7       2.1699E+00       0.0000E+00       1.1775E-17
      8       0.0000E+00       3.7061E+00       0.0000E+00
      1      -2.1431E+00      -1.8995E+00      -4.4517E-16
      1      -3.8296E+00       9.3914E-01      -1.5408E-15
      6       0.0000E+00       1.3224E+00       0.0000E+00
      1       2.1431E+00      -1.8995E+00       3.1510E-16
      8       0.0000E+00      -5.1454E+00       0.0000E+00
      8      -7.4362E+00       2.0190E+00      -3.0867E-15
      1      -7.4362E+00      -1.2268E+00       2.1431E+00
      1      -7.4362E+00      -1.2268E+00      -2.1431E+00
      1       4.6795E-15      -1.2268E+00      -5.2931E+00
      1      -2.7192E-15      -1.2268E+00       5.2931E+00
      1       1.6770E-15      -4.0655E+00      -3.6065E+00
      1      -1.3630E-15      -4.0655E+00       3.6065E+00
      1       3.8296E+00       9.3914E-01       1.2268E-15
      1       1.6770E-15       4.7860E+00      -3.6065E+00
      1      -1.3630E-15       4.7860E+00       3.6065E+00
      7       2.4074E-15      -3.1263E+00      -5.2663E+00
      7      -7.4362E+00      -3.1263E+00       2.1699E+00
      7      -1.7794E-15      -3.1263E+00       5.2663E+00
      7      -7.4362E+00      -3.1263E+00      -2.1699E+00
      6      -7.4362E+00       4.4027E+00      -3.0867E-15
      6      -7.4362E+00      -4.4488E+00      -3.0867E-15
      1      -2.1431E+00       6.9520E+00      -4.4517E-16
      1      -3.6065E+00       9.3914E-01      -7.4362E+00
      1      -3.6065E+00       9.3914E-01       7.4362E+00
      1      -7.4362E+00      -4.0655E+00       3.8296E+00
      1      -7.4362E+00      -4.0655E+00      -3.8296E+00
      6       0.0000E+00      -7.5291E+00       0.0000E+00
      8       2.8011E-15       2.0190E+00      -7.4362E+00
      8      -2.8011E-15       2.0190E+00       7.4362E+00
      7      -5.2663E+00       0.0000E+00      -7.4362E+00
      7      -5.2663E+00       0.0000E+00       7.4362E+00
      7       2.4074E-15       5.7251E+00      -5.2663E+00
      7      -7.4362E+00       5.7251E+00       2.1699E+00
      7      -1.7794E-15       5.7251E+00       5.2663E+00
      7      -7.4362E+00       5.7251E+00      -2.1699E+00
      1      -7.4362E+00       4.7860E+00       3.8296E+00
      1      -7.4362E+00       4.7860E+00      -3.8296E+00
      1      -3.8296E+00      -7.9123E+00      -1.5408E-15
      1       2.1431E+00       6.9520E+00       3.1510E-16
      1      -5.2931E+00      -1.8995E+00      -7.4362E+00
      1      -5.2931E+00      -1.8995E+00       7.4362E+00
      8      -7.4362E+00      -6.8325E+00      -3.0867E-15
      7      -2.1699E+00      -8.8515E+00      -3.2579E-16
      7      -2.1699E+00       8.8515E+00      -3.2579E-16
      6       2.8011E-15       4.4027E+00      -7.4362E+00
      6      -2.8011E-15       4.4027E+00       7.4362E+00
      8       7.4362E+00       2.0190E+00       3.0867E-15
      1       7.4362E+00      -1.2268E+00       2.1431E+00
      1       7.4362E+00      -1.2268E+00      -2.1431E+00
      7       7.4362E+00      -3.1263E+00       2.1699E+00
      7       7.4362E+00      -3.1263E+00      -2.1699E+00
      6       7.4362E+00       4.4027E+00       3.0867E-15
      6       7.4362E+00      -4.4488E+00       3.0867E-15
      1       3.6065E+00       9.3914E-01      -7.4362E+00
      1       3.6065E+00       9.3914E-01       7.4362E+00
      1       7.4362E+00      -4.0655E+00       3.8296E+00
      1       7.4362E+00      -4.0655E+00      -3.8296E+00
      7       5.2663E+00       2.2204E-16      -7.4362E+00
      7       5.2663E+00       2.2204E-16       7.4362E+00
      7       7.4362E+00       5.7251E+00       2.1699E+00
      7       7.4362E+00       5.7251E+00      -2.1699E+00
      1       7.4362E+00       4.7860E+00       3.8296E+00
      1       7.4362E+00       4.7860E+00      -3.8296E+00
      1       3.8296E+00      -7.9123E+00       1.2268E-15
      1       5.2931E+00      -1.8995E+00      -7.4362E+00
      1       5.2931E+00      -1.8995E+00       7.4362E+00
      8       7.4362E+00      -6.8325E+00       3.0867E-15
      7       2.1699E+00      -8.8515E+00       1.1775E-17
      7       2.1699E+00       8.8515E+00       1.1775E-17
      6       0.0000E+00       1.0174E+01       0.0000E+00
      1       4.6795E-15       7.6247E+00      -5.2931E+00
      1      -2.7192E-15       7.6247E+00       5.2931E+00
      1       3.8296E+00       9.7906E+00       1.2268E-15
      1      -3.8296E+00       9.7906E+00      -1.5408E-15
      1       7.4362E+00       7.6247E+00       2.1431E+00
      1      -7.4362E+00       7.6247E+00       2.1431E+00
      1       7.4362E+00       7.6247E+00      -2.1431E+00
      1      -7.4362E+00       7.6247E+00      -2.1431E+00
      8       0.0000E+00       1.2558E+01       0.0000E+00
      1      -5.2931E+00       6.9520E+00      -7.4362E+00
      1      -5.2931E+00       6.9520E+00       7.4362E+00
      1       5.2931E+00       6.9520E+00      -7.4362E+00
      1       5.2931E+00       6.9520E+00       7.4362E+00
      7      -3.3788E-15       5.7251E+00       9.6060E+00
      7       3.3788E-15       5.7251E+00      -9.6060E+00
      1      -3.6065E+00       9.7906E+00      -7.4362E+00
      1      -3.6065E+00       9.7906E+00       7.4362E+00
      1       3.6065E+00       9.7906E+00      -7.4362E+00
      1       3.6065E+00       9.7906E+00       7.4362E+00
      8       7.4362E+00       1.0870E+01       3.0867E-15
      8       2.8011E-15       1.0870E+01      -7.4362E+00
      8      -2.8011E-15       1.0870E+01       7.4362E+00
      8      -7.4362E+00       1.0870E+01      -3.0867E-15
      1      -1.9949E-15       7.6247E+00       9.5793E+00
      1       3.5111E-15       7.6247E+00      -9.5793E+00
      7      -5.2663E+00       8.8515E+00      -7.4362E+00
      7      -5.2663E+00       8.8515E+00       7.4362E+00
      7       5.2663E+00       8.8515E+00      -7.4362E+00
      7       5.2663E+00       8.8515E+00       7.4362E+00

 *** PLOT INFORMATION ***

 EULER ANGLES                       : 1.800E+02  9.000E+01  1.350E+02
 ROTAT. MATRIX                      : 7.071E-01  7.071E-01  0.000E+00
                                      0.000E+00  0.000E+00  1.000E+00
                                      7.071E-01 -7.071E-01  0.000E+00
 COORD.,AT. N., CELL OF ATOMS A,B,C :-1.534E+00 -6.792E+00  1.563E+00      7      0    -1     0
                                      1.534E+00 -3.724E+00  1.563E+00      7      0     0     0
                                      0.000E+00 -5.258E+00  5.269E+00      8  0-1 1
 ORIGIN AT ( AU; SYSTEM REF. FRAME) : 0.000E+00 -5.258E+00  1.563E+00
 X AXIS RANGES AND INCREMENTS (ANG) :-4.000E+00  4.000E+00  8.000E-02
 Y AXIS RANGES AND INCREMENTS (ANG) :-4.000E+00  4.000E+00  8.000E-02
 IPSIZE(A3=1,A4=2), SCALE(ANG/CM)   :     2          0.000E+00
 TOLERA (ANG), TR1 (ANG), IPLANE    : 2.000E+00  1.000E-04   0
 THR (ANG), IL(K),K=1,3             : 2.200E+00   1   1   1
 N. GRHO TRAJ. FROM EACH 3,-3 CP    :36
 PLOTTED FUNCTIONS                  : ELECTRON DENSITY RHO                      
                                      SPIN DENSITY (RHOA-RHOB)                  
                                      LAPLACIAN OF RHO                          
                                      NEGATIVE OF THE LAPLACIAN OF RHO          
                                      MAGNITUDE OF GRAD(RHO)                    
                                      HAMILTONIAN KINETIC ENERGY K(R)           
                                      LAGRANGIAN KINETIC ENERGY G(R)            
                                      VIRIAL FIELD DENSITY                      
                                      BECKE ELECTRON LOCALIZATION FUNCTION      
                                      GRAD(RHO) TRAJECTORIES                    
                                      MOLECULAR GRAPH                           
                                      GRAD(RHO) TRAJECTORIES AND MOLECULAR GRAPH
 FUNCTION FILES                     : SURFRHOO.DAT                    
                                      SURFSPDE.DAT                    
                                      SURFLAPP.DAT                    
                                      SURFLAPM.DAT                    
                                      SURFGRHO.DAT                    
                                      SURFKKIN.DAT                    
                                      SURFGKIN.DAT                    
                                      SURFVIRI.DAT                    
                                      SURFELFB.DAT                    
                                      TRAJGRAD.DAT                    
                                      MOLGRAPH.DAT                    
                                      TRAJMOLG.DAT                    
 INFORM. FILE                       : P2DCRYIN.DAT                    
 TTTTTTTTTTTTTTTTTTTTTTTTTTTTTT PL2D        TELAPSE       19.98 TCPU       19.46
 TTTTTTTTTTTTTTTTTTTTTTTTTTTTTT END         TELAPSE       19.98 TCPU       19.46
 EEEEEEEEEE TERMINATION  DATE 21 07 2024 TIME 15:19:59.5
NODE    0 CPU TIME =        19.457
NODE    1 CPU TIME =        19.469
NODE    2 CPU TIME =        19.462
NODE    3 CPU TIME =        19.463
NODE    4 CPU TIME =        19.472
NODE    5 CPU TIME =        19.459
    TOTAL CPU TIME =       116.783
  fort.9               urea_crys_plt.f9                                      336100   Jul 21 15:19
  SURFRHOO.DAT         urea_crys_plt.SURFRHOO                                163358   Jul 21 15:19
  SURFSPDE.DAT         urea_crys_plt.SURFSPDE                                163358   Jul 21 15:19
  SURFGRHO.DAT         urea_crys_plt.SURFGRHO                                163358   Jul 21 15:19
  SURFLAPP.DAT         urea_crys_plt.SURFLAPP                                163358   Jul 21 15:19
  SURFLAPM.DAT         urea_crys_plt.SURFLAPM                                163358   Jul 21 15:19
  SURFKKIN.DAT         urea_crys_plt.SURFKKIN                                163358   Jul 21 15:19
  SURFGKIN.DAT         urea_crys_plt.SURFGKIN                                163358   Jul 21 15:19
  SURFVIRI.DAT         urea_crys_plt.SURFVIRI                                163358   Jul 21 15:19
  SURFELFB.DAT         urea_crys_plt.SURFELFB                                163358   Jul 21 15:19
  TRAJGRAD.DAT         urea_crys_plt.TRAJGRAD                                1766070  Jul 21 15:19
  MOLGRAPH.DAT         urea_crys_plt.MOLGRAPH                                762174   Jul 21 15:19
  TRAJMOLG.DAT         urea_crys_plt.TRAJMOLG                                2528244  Jul 21 15:19
  P2DCRYIN.DAT         urea_crys_plt.P2DCRYIN                                7756     Jul 21 15:19
--------------------------------------------

Temporary Directory Disk Info
--------------------------------------------
  Temporary directory      : /home/spica-vir/topond_test/urea_crys_plt_tmpfile

  Disk usage (df -h)
Filesystem      Size  Used Avail Use% Mounted on
/dev/sdc        251G   38G  201G  16% /

  Usage by folders (du -m)
14	/home/spica-vir/topond_test/urea_crys_plt_tmpfile

  Detailed file list (ls -l .)
    see /home/spica-vir/topond_test/urea_crys_plt.log file
--------------------------------------------

