Lmod has detected the following error: The following module(s) are unknown:
"epcc-job-env"

Please check the spelling or version number. Also try "module spider ..."
It is also possible your cache file is out-of-date; it may help to try:
  $ module --ignore-cache load "epcc-job-env"

Also make sure that all modulefiles written in TCL start with the string
#%Module




Warning: You have enabled access to software packages installed
by external parties on ARCHER2 or those that are not fully-supported.
The ARCHER2 CSE service does not test these packages. The service desk
will make reasonable efforts to assist with questions on the use of
these packages but some issues may not be able to be resolved by the
service and they may direct you to seek help from external parties.


         512 PROCESSORS WORKING

         
 *******************************************************************************
 *                                                                             *
 *                               CRYSTAL17                                     *
 *                      public : 1.0.2 - March 1st, 2018 STFC/Archer2 build    *
 *                       HTTP://WWW.CRYSTAL.UNITO.IT                           *
 *                                                                             *
 *                              MAIN AUTHORS                                   *
 *                                                                             *
 *  R. DOVESI(1,11), V.R. SAUNDERS(2), C. ROETTI(1,11), R. ORLANDO(1,11),      *
 *  C.M. ZICOVICH-WILSON(1,3), F. PASCALE(4), B. CIVALLERI(1,11),              *
 *  K. DOLL(5), N.M. HARRISON(2,6), I.J. BUSH(7), Ph. D'ARCO(8),               *
 *  M. LLUNELL(9), M. CAUSA'(10), Y. NOEL(8), L. MASCHIO(1,11), A. ERBA(1,11)  *
 *  M. RE'RAT(14), S. CASASSA(1,11)                                            *
 *                                                                             *
 *        CONTRIBUTIONS TO THE CODE HAVE ALSO BEEN GIVEN BY                    *
 *                                                                             *
 *  M. FERRABONE(1,11), M. DE LA PIERRE(1,11), M. FERRERO(1,11),               *
 *  J. BAIMA(1,11), E. ALBANESE(1,11), M.F. PEINTINGER(12), R. BAST(13),       *
 *  B. KIRTMAN(15), V. LACIVITA(1,11), R. DEMICHELIS(1,16)                     *
 *  G. BRANDEBURG(17), S. SALUSTRO(1,11), G. SANSONE(1,11)                     *
 *  M.T. RUGGIERO(18)                                                          *
 *                                                                             *
 * (1) THEORETICAL CHEMISTRY GROUP - UNIVERSITA' DI TORINO - TORINO (ITALY)    *
 * (2) COMPUTATIONAL SCIENCE & ENGINEERING DEPARTMENT - STFC DARESBURY (UK)    *
 * (3) UNIVERSIDAD AUTONOMA DEL ESTADO DE MORELOS - CUERNAVACA (MEXICO)        *
 * (4) UNIVERSITE' DE LORRAINE - NANCY (FRANCE)                                *
 * (5) UNIVERSITAET STUTTGART- STUTTGART (GERMANY)                             *
 * (6) IMPERIAL COLLEGE - LONDON (UK)                                          *
 * (7) OXFORD E-RESEARCH CENTRE - OXFORD (UK)                                  *
 * (8) UPMC - SORBONNE UNIVERSITES - PARIS (FRANCE)                            *
 * (9) UNIVERSIDAD DE BARCELONA - BARCELONA (SPAIN)                            *
 *(10) UNIVERSITA' DI NAPOLI "FEDERICO II" - NAPOLI (ITALY)                    *
 *(11) NIS - NANOSTRUCTURED INTERFACES AND SURFACES - TORINO (ITALY)           *
 *(12) MPI FUER CHEMISCHE ENERGIEKONVERSION - MUELHEIM AN DER RUHR (GERMANY)   *
 *(13) UNIVERSITY OF TROMSO - TROMSO (NORWAY)                                  *
 *(14) UNIVERSITE' DE PAU ET DES PAYS DE L'ADOUR - PAU (FRANCE)                *
 *(15) UNIVERSITY OF CALIFORNIA SANTA BARBARA - SANTA BARBARA (USA)            *
 *(16) CURTIN UNIVERSITY - PERTH (AUSTRALIA)                                   *
 *(17) UNIVERSITY COLLEGE LONDON - LONDON (UK)                                 *
 *(18) CAMBRIDGE UNIVERSITY - CAMBRIDGE (UK)                                   *
 *                                                                             *
 *******************************************************************************
 EEEEEEEEEE STARTING  DATE 05 03 2022 TIME 11:43:55.3
 F1 vol step4 freq - PBEh-3c                                                     

 GEOMETRY INPUT FROM EXTERNAL FILE (FORTRAN UNIT 34)
 3D - CRYSTAL 

 *******************************************************************************
 LATTICE PARAMETERS  (ANGSTROMS AND DEGREES) - PRIMITIVE CELL
       A          B          C        ALPHA      BETA     GAMMA        VOLUME
    7.20994    9.40382   12.77348    90.00000 116.74197  90.00000    773.423243

 NUMBER OF IRREDUCIBLE ATOMS IN THE CELL:   20

 CARTESIAN COORDINATES (ANGSTROM) - IRREDUCIBLE ATOMS AND SYMMETRY RELATED

 AT.IRR.  AT  AT.N.          X                   Y                   Z
     1     1     8    2.772150214922E+00 -6.974516711100E-01  2.421058793380E+00
     1     2     8    1.584599279545E+00  4.004457341063E+00  3.266796525880E+00
     1     3     8   -2.772150214922E+00  6.974516711100E-01 -2.421058793380E+00
     1     4     8   -1.584599279545E+00 -4.004457341063E+00 -3.266796525880E+00
     5     5     8    7.799793272250E-01  4.725905154701E+00 -2.262371224659E+00
     5     6     8    2.073165656221E+00  2.399614252800E-02 -3.451649144358E+00
     5     7     8   -7.799793272250E-01 -4.725905154701E+00  2.262371224659E+00
     5     8     8   -2.073165656221E+00 -2.399614252800E-02  3.451649144358E+00
     9     9     7    2.963225250455E+00 -4.280695470106E+00 -1.824925716816E+00
     9    10     7   -1.100802670100E-01  4.212135420670E-01 -3.889094652201E+00
     9    11     7   -2.963225250455E+00  4.280695470106E+00  1.824925716816E+00
     9    12     7    1.100802670100E-01 -4.212135420670E-01  3.889094652201E+00
    13    13     6    2.867769845497E+00 -3.401037397788E+00 -7.308895555860E-01
    13    14     6   -1.462486205200E-02  1.300871614385E+00 -4.983130813431E+00
    13    15     6   -2.867769845497E+00  3.401037397788E+00  7.308895555860E-01
    13    16     6    1.462486205200E-02 -1.300871614385E+00  4.983130813431E+00
    17    17     6    1.803539153937E+00 -3.378098189410E+00  1.646411224520E-01
    17    18     6    1.049605829508E+00  1.323810822763E+00 -5.878661491469E+00
    17    19     6   -1.803539153937E+00  3.378098189410E+00 -1.646411224520E-01
    17    20     6   -1.049605829508E+00 -1.323810822763E+00  5.878661491469E+00
    21    21     6    1.791868349442E+00 -2.471968675394E+00  1.214804491138E+00
    21    22     6    2.564881145025E+00  2.229940336779E+00  4.473050828121E+00
    21    23     6   -1.791868349442E+00  2.471968675394E+00 -1.214804491138E+00
    21    24     6   -2.564881145025E+00 -2.229940336779E+00 -4.473050828121E+00
    25    25     6    2.842679067449E+00 -1.578839329258E+00  1.402926348935E+00
    25    26     6    1.514070427017E+00  3.123069682915E+00  4.284928970325E+00
    25    27     6   -2.842679067449E+00  1.578839329258E+00 -1.402926348935E+00
    25    28     6   -1.514070427017E+00 -3.123069682915E+00 -4.284928970325E+00
    29    29     6   -3.289055438076E+00 -1.622812778020E+00  5.492866978110E-01
    29    30     6    4.359104546300E-01  3.079096234154E+00  5.164733671206E+00
    29    31     6    3.289055438076E+00  1.622812778020E+00 -5.492866978110E-01
    29    32     6   -4.359104546300E-01 -3.079096234154E+00 -5.164733671206E+00
    33    33     6   -3.283286718440E+00 -2.520616429871E+00 -5.027306538880E-01
    33    34     6   -1.073462776027E+00  2.181292582302E+00 -5.185124665372E+00
    33    35     6    3.283286718440E+00  2.520616429871E+00  5.027306538880E-01
    33    36     6    1.073462776027E+00 -2.181292582302E+00  5.185124665372E+00
    37    37     6    1.970790603526E+00  4.569855023640E+00 -2.536298926757E+00
    37    38     6    8.823543799190E-01 -1.320539885330E-01 -3.177721442259E+00
    37    39     6   -1.970790603526E+00 -4.569855023640E+00  2.536298926757E+00
    37    40     6   -8.823543799190E-01  1.320539885330E-01  3.177721442259E+00
    41    41     6    2.409913264283E+00  3.722928718345E+00 -3.697947617879E+00
    41    42     6    4.432317191620E-01 -9.789802938280E-01 -2.016072751138E+00
    41    43     6   -2.409913264283E+00 -3.722928718345E+00  3.697947617879E+00
    41    44     6   -4.432317191620E-01  9.789802938280E-01  2.016072751138E+00
    45    45     1    9.764341166600E-01 -4.061513905437E+00  6.481311487500E-02
    45    46     1    1.876710866785E+00  6.403951067360E-01 -5.778833483892E+00
    45    47     1   -9.764341166600E-01  4.061513905437E+00 -6.481311487500E-02
    45    48     1   -1.876710866785E+00 -6.403951067360E-01  5.778833483892E+00
    49    49     1    9.515074863430E-01 -2.472872456895E+00  1.897811284790E+00
    49    50     1    3.405242008124E+00  2.229036555278E+00  3.790044034470E+00
    49    51     1   -9.515074863430E-01  2.472872456895E+00 -1.897811284790E+00
    49    52     1   -3.405242008124E+00 -2.229036555278E+00 -3.790044034470E+00
    53    53     1   -2.456368758693E+00 -9.420066373100E-01  6.669874413740E-01
    53    54     1   -3.967762247520E-01  3.759902374863E+00  5.047032927643E+00
    53    55     1    2.456368758693E+00  9.420066373100E-01 -6.669874413740E-01
    53    56     1    3.967762247520E-01 -3.759902374863E+00 -5.047032927643E+00
    57    57     1   -2.434984210606E+00 -2.536239268955E+00 -1.175613886884E+00
    57    58     1   -1.921765283861E+00  2.165669743219E+00 -4.512241432376E+00
    57    59     1    2.434984210606E+00  2.536239268955E+00  1.175613886884E+00
    57    60     1    1.921765283861E+00 -2.165669743219E+00  4.512241432376E+00
    61    61     1   -3.557309955214E+00 -3.293965749500E-01  2.684419968199E+00
    61    62     1    7.041649717690E-01  4.372512437223E+00  3.029600400818E+00
    61    63     1    3.557309955214E+00  3.293965749500E-01 -2.684419968199E+00
    61    64     1   -7.041649717690E-01 -4.372512437223E+00 -3.029600400818E+00
    65    65     1   -3.307034652070E+00 -4.426684851993E+00 -2.147651981041E+00
    65    66     1   -1.049714842397E+00  2.752241601800E-01 -3.540203338219E+00
    65    67     1    3.307034652070E+00  4.426684851993E+00  2.147651981041E+00
    65    68     1    1.049714842397E+00 -2.752241601800E-01  3.540203338219E+00
    69    69     1    1.768478583864E+00  3.901389199033E+00 -4.559574803920E+00
    69    70     1    1.084666399581E+00 -8.005198131400E-01 -1.154445565097E+00
    69    71     1   -1.768478583864E+00 -3.901389199033E+00  4.559574803920E+00
    69    72     1   -1.084666399581E+00  8.005198131400E-01  1.154445565097E+00
    73    73     1    3.446485544870E+00  3.890715758850E+00 -3.984094033579E+00
    73    74     1   -5.933405614250E-01 -8.111932533230E-01 -1.729926335438E+00
    73    75     1   -3.446485544870E+00 -3.890715758850E+00  3.984094033579E+00
    73    76     1    5.933405614250E-01  8.111932533230E-01  1.729926335438E+00
    77    77     1    2.296749400989E+00  2.668910715482E+00 -3.446176416749E+00
    77    78     1    5.563955824560E-01 -2.032998296691E+00 -2.267843952268E+00
    77    79     1   -2.296749400989E+00 -2.668910715482E+00  3.446176416749E+00
    77    80     1   -5.563955824560E-01  2.032998296691E+00  2.267843952268E+00

 SPACE  GROUP  N.                     :   14
 NUMBER OF SYMMETRY OPERATORS         :    4
 *******************************************************************************
 LATTICE PARAMETERS (ANGSTROMS AND DEGREES) - BOHR = 0.5291772083 ANGSTROM
 PRIMITIVE CELL - CENTRING CODE 1/0 VOLUME=   773.423243 - DENSITY  1.297 g/cm^3
         A              B              C           ALPHA      BETA       GAMMA 
     7.20994195     9.40381802    12.77348270    90.000000 116.741965  90.000000
 *******************************************************************************
 ATOMS IN THE ASYMMETRIC UNIT   20 - ATOMS IN THE UNIT CELL:   80
     ATOM                 X/A                 Y/B                 Z/C    
 *******************************************************************************
      1 T   8 O    -4.468339395049E-01 -7.416686172617E-02  2.131189822222E-01
      2 F   8 O     4.468339395064E-01  4.258331382736E-01  2.868810177793E-01
      3 F   8 O     4.468339395049E-01  7.416686172617E-02 -2.131189822222E-01
      4 F   8 O    -4.468339395064E-01 -4.258331382736E-01 -2.868810177793E-01
      5 T   8 O    -4.858749477262E-02 -4.974482553295E-01 -1.980779182341E-01
      6 F   8 O     4.858749477158E-02  2.551744670714E-03 -3.019220817674E-01
      7 F   8 O     4.858749477262E-02  4.974482553295E-01  1.980779182341E-01
      8 F   8 O    -4.858749477158E-02 -2.551744670714E-03  3.019220817674E-01
      9 T   7 N     2.851251102067E-01 -4.552082419100E-01 -1.590356077466E-01
     10 F   7 N    -2.851251102078E-01  4.479175808978E-02 -3.409643922549E-01
     11 F   7 N    -2.851251102067E-01  4.552082419100E-01  1.590356077466E-01
     12 F   7 N     2.851251102078E-01 -4.479175808978E-02  3.409643922549E-01
     13 T   6 C     3.477669463873E-01 -3.616655903997E-01 -6.315957675315E-02
     14 F   6 C    -3.477669463885E-01  1.383344096001E-01 -4.368404232483E-01
     15 F   6 C    -3.477669463873E-01  3.616655903997E-01  6.315957675315E-02
     16 F   6 C     3.477669463885E-01 -1.383344096001E-01  4.368404232483E-01
     17 T   6 C     2.620248687550E-01 -3.592262398807E-01  1.500668575763E-02
     18 F   6 C    -2.620248687562E-01  1.407737601190E-01  4.849933142409E-01
     19 F   6 C    -2.620248687550E-01  3.592262398807E-01 -1.500668575763E-02
     20 F   6 C     2.620248687562E-01 -1.407737601190E-01 -4.849933142409E-01
     21 T   6 C     3.332646410497E-01 -2.628686209147E-01  1.070633545245E-01
     22 F   6 C    -3.332646410483E-01  2.371313790851E-01  3.929366454769E-01
     23 F   6 C    -3.332646410497E-01  2.628686209147E-01 -1.070633545245E-01
     24 F   6 C     3.332646410483E-01 -2.371313790851E-01 -3.929366454769E-01
     25 T   6 C     4.923269572062E-01 -1.678934370242E-01  1.238889623100E-01
     26 F   6 C    -4.923269572048E-01  3.321065629756E-01  3.761110376915E-01
     27 F   6 C    -4.923269572062E-01  1.678934370242E-01 -1.238889623100E-01
     28 F   6 C     4.923269572048E-01 -3.321065629756E-01 -3.761110376915E-01
     29 T   6 C    -4.189044058638E-01 -1.725695641725E-01  4.710571615291E-02
     30 F   6 C     4.189044058648E-01  3.274304358273E-01  4.528942838486E-01
     31 F   6 C     4.189044058638E-01  1.725695641725E-01 -4.710571615291E-02
     32 F   6 C    -4.189044058648E-01 -3.274304358273E-01 -4.528942838486E-01
     33 T   6 C    -4.910929045539E-01 -2.680418127344E-01 -4.511535581569E-02
     34 F   6 C     4.910929045524E-01  2.319581872654E-01 -4.548846441858E-01
     35 F   6 C     4.910929045539E-01  2.680418127344E-01  4.511535581569E-02
     36 F   6 C    -4.910929045524E-01 -2.319581872654E-01  4.548846441858E-01
     37 T   6 C     9.787042799169E-02  4.859574070667E-01 -2.217123827459E-01
     38 F   6 C    -9.787042799280E-02 -1.404259293311E-02 -2.782876172555E-01
     39 F   6 C    -9.787042799169E-02 -4.859574070667E-01  2.217123827459E-01
     40 F   6 C     9.787042799280E-02  1.404259293311E-02  2.782876172555E-01
     41 T   6 C     7.829015388200E-02  3.958954446699E-01 -3.234061933134E-01
     42 F   6 C    -7.829015388318E-02 -1.041045553299E-01 -1.765938066881E-01
     43 F   6 C    -7.829015388200E-02 -3.958954446699E-01  3.234061933134E-01
     44 F   6 C     7.829015388318E-02  1.041045553299E-01  1.765938066881E-01
     45 T   1 H     1.401723926463E-01 -4.319005211415E-01  5.992342350992E-03
     46 F   1 H    -1.401723926474E-01  6.809947885824E-02  4.940076576475E-01
     47 F   1 H    -1.401723926463E-01  4.319005211415E-01 -5.992342350992E-03
     48 F   1 H     1.401723926474E-01 -6.809947885824E-02 -4.940076576475E-01
     49 T   1 H     2.638841631710E-01 -2.629647288465E-01  1.666703742765E-01
     50 F   1 H    -2.638841631696E-01  2.370352711533E-01  3.333296257250E-01
     51 F   1 H    -2.638841631710E-01  2.629647288465E-01 -1.666703742765E-01
     52 F   1 H     2.638841631696E-01 -2.370352711533E-01 -3.333296257250E-01
     53 T   1 H    -2.950363310903E-01 -1.001727845935E-01  5.768861139064E-02
     54 F   1 H     2.950363310915E-01  3.998272154063E-01  4.423113886109E-01
     55 F   1 H     2.950363310903E-01  1.001727845935E-01 -5.768861139064E-02
     56 F   1 H    -2.950363310915E-01 -3.998272154063E-01 -4.423113886109E-01
     57 T   1 H    -4.199065513532E-01 -2.697031421054E-01 -1.038323882368E-01
     58 F   1 H     4.199065513517E-01  2.302968578945E-01 -3.961676117647E-01
     59 F   1 H     4.199065513532E-01  2.697031421054E-01  1.038323882368E-01
     60 F   1 H    -4.199065513517E-01 -2.302968578945E-01  3.961676117647E-01
     61 T   1 H    -3.080406139355E-01 -3.502796141919E-02  2.341923809660E-01
     62 F   1 H     3.080406139367E-01  4.649720385806E-01  2.658076190355E-01
     63 F   1 H     3.080406139355E-01  3.502796141919E-02 -2.341923809660E-01
     64 F   1 H    -3.080406139367E-01 -4.649720385806E-01 -2.658076190355E-01
     65 T   1 H     3.914809585435E-01 -4.707327215957E-01 -1.893215085281E-01
     66 F   1 H    -3.914809585449E-01  2.926727840408E-02 -3.106784914734E-01
     67 F   1 H    -3.914809585435E-01  4.707327215957E-01  1.893215085281E-01
     68 F   1 H     3.914809585449E-01 -2.926727840408E-02  3.106784914734E-01
     69 T   1 H    -7.061783543653E-02  4.148728940661E-01 -3.991430051461E-01
     70 F   1 H     7.061783543535E-02 -8.512710593369E-02 -1.008569948553E-01
     71 F   1 H     7.061783543653E-02 -4.148728940661E-01  3.991430051461E-01
     72 F   1 H    -7.061783543535E-02  8.512710593369E-02  1.008569948553E-01
     73 T   1 H     2.024688099388E-01  4.137378827169E-01 -3.481608543678E-01
     74 F   1 H    -2.024688099400E-01 -8.626211728284E-02 -1.518391456336E-01
     75 F   1 H    -2.024688099388E-01 -4.137378827169E-01  3.481608543678E-01
     76 F   1 H     2.024688099400E-01  8.626211728284E-02  1.518391456336E-01
     77 T   1 H     8.003417581453E-02  2.838113953897E-01 -3.013711971733E-01
     78 F   1 H    -8.003417581571E-02 -2.161886046100E-01 -1.986288028282E-01
     79 F   1 H    -8.003417581453E-02 -2.838113953897E-01  3.013711971733E-01
     80 F   1 H     8.003417581571E-02  2.161886046100E-01  1.986288028282E-01

 T = ATOM BELONGING TO THE ASYMMETRIC UNIT
 *******************************************************************************
 * GEOMETRY EDITING - INPUT COORDINATES ARE GIVEN IN ANGSTROM         
 *******************************************************************************

 GEOMETRY NOW FULLY CONSISTENT WITH THE GROUP

 FRQFRQFRQFRQFRQFRQFRQFRQFRQFRQFRQFRQFRQFRQFRQFRQFRQFRQFRQFRQFRQFRQFRQFRQFRQFRQ

                       FREQUENCY CALCULATION

 INFORMATION **** INPFREQ ****  PRINTING OF EIGENVECTORS
 INFORMATION **** INPFREQ **** NEW DEFAULT - IMPOSING ECKART CONDITIONS TO THE HESSIAN

 GCALCO - MAX INDICES DIRECT LATTICE VECTOR    20    14    11
 NO.OF VECTORS CREATED 6999 STARS 1868 RMAX   205.79798 BOHR

 GEOMETRY FOR WAVE FUNCTION - DIMENSIONALITY OF THE SYSTEM    3
 (NON PERIODIC DIRECTION: LATTICE PARAMETER FORMALLY SET TO 500)
 *******************************************************************************
 LATTICE PARAMETERS (ANGSTROMS AND DEGREES) - BOHR = 0.5291772083 ANGSTROM
 PRIMITIVE CELL - CENTRING CODE 1/0 VOLUME=   773.423243 - DENSITY  1.297 g/cm^3
         A              B              C           ALPHA      BETA       GAMMA 
     7.20994195     9.40381802    12.77348270    90.000000 116.741965  90.000000
 *******************************************************************************
 ATOMS IN THE ASYMMETRIC UNIT   20 - ATOMS IN THE UNIT CELL:   80
     ATOM                 X/A                 Y/B                 Z/C    
 *******************************************************************************
      1 T   8 O    -4.468339395049E-01 -7.416686172617E-02  2.131189822222E-01
      2 F   8 O     4.468339395056E-01  4.258331382733E-01  2.868810177795E-01
      3 F   8 O     4.468339395049E-01  7.416686172617E-02 -2.131189822222E-01
      4 F   8 O    -4.468339395042E-01 -4.258331382744E-01 -2.868810177760E-01
      5 T   8 O    -4.858749477262E-02 -4.974482553295E-01 -1.980779182341E-01
      6 F   8 O     4.858749477331E-02  2.551744669970E-03 -3.019220817642E-01
      7 F   8 O     4.858749477262E-02  4.974482553295E-01  1.980779182341E-01
      8 F   8 O    -4.858749477193E-02 -2.551744671033E-03  3.019220817677E-01
      9 T   7 N     2.851251102067E-01 -4.552082419100E-01 -1.590356077466E-01
     10 F   7 N    -2.851251102060E-01  4.479175808946E-02 -3.409643922517E-01
     11 F   7 N    -2.851251102067E-01  4.552082419100E-01  1.590356077466E-01
     12 F   7 N     2.851251102074E-01 -4.479175809052E-02  3.409643922552E-01
     13 T   6 C     3.477669463873E-01 -3.616655903997E-01 -6.315957675315E-02
     14 F   6 C    -3.477669463866E-01  1.383344095998E-01 -4.368404232451E-01
     15 F   6 C    -3.477669463873E-01  3.616655903997E-01  6.315957675315E-02
     16 F   6 C     3.477669463880E-01 -1.383344096008E-01  4.368404232486E-01
     17 T   6 C     2.620248687550E-01 -3.592262398807E-01  1.500668575763E-02
     18 F   6 C    -2.620248687543E-01  1.407737601187E-01  4.849933142441E-01
     19 F   6 C    -2.620248687550E-01  3.592262398807E-01 -1.500668575763E-02
     20 F   6 C     2.620248687557E-01 -1.407737601198E-01 -4.849933142406E-01
     21 T   6 C     3.332646410497E-01 -2.628686209147E-01  1.070633545245E-01
     22 F   6 C    -3.332646410490E-01  2.371313790847E-01  3.929366454772E-01
     23 F   6 C    -3.332646410497E-01  2.628686209147E-01 -1.070633545245E-01
     24 F   6 C     3.332646410504E-01 -2.371313790858E-01 -3.929366454737E-01
     25 T   6 C     4.923269572062E-01 -1.678934370242E-01  1.238889623100E-01
     26 F   6 C    -4.923269572055E-01  3.321065629753E-01  3.761110376918E-01
     27 F   6 C    -4.923269572062E-01  1.678934370242E-01 -1.238889623100E-01
     28 F   6 C     4.923269572069E-01 -3.321065629764E-01 -3.761110376883E-01
     29 T   6 C    -4.189044058638E-01 -1.725695641725E-01  4.710571615291E-02
     30 F   6 C     4.189044058645E-01  3.274304358269E-01  4.528942838488E-01
     31 F   6 C     4.189044058638E-01  1.725695641725E-01 -4.710571615291E-02
     32 F   6 C    -4.189044058631E-01 -3.274304358280E-01 -4.528942838453E-01
     33 T   6 C    -4.910929045539E-01 -2.680418127344E-01 -4.511535581569E-02
     34 F   6 C     4.910929045546E-01  2.319581872651E-01 -4.548846441826E-01
     35 F   6 C     4.910929045539E-01  2.680418127344E-01  4.511535581569E-02
     36 F   6 C    -4.910929045532E-01 -2.319581872662E-01  4.548846441861E-01
     37 T   6 C     9.787042799169E-02  4.859574070667E-01 -2.217123827459E-01
     38 F   6 C    -9.787042799100E-02 -1.404259293386E-02 -2.782876172524E-01
     39 F   6 C    -9.787042799169E-02 -4.859574070667E-01  2.217123827459E-01
     40 F   6 C     9.787042799238E-02  1.404259293279E-02  2.782876172559E-01
     41 T   6 C     7.829015388200E-02  3.958954446699E-01 -3.234061933134E-01
     42 F   6 C    -7.829015388131E-02 -1.041045553306E-01 -1.765938066848E-01
     43 F   6 C    -7.829015388200E-02 -3.958954446699E-01  3.234061933134E-01
     44 F   6 C     7.829015388270E-02  1.041045553296E-01  1.765938066883E-01
     45 T   1 H     1.401723926463E-01 -4.319005211415E-01  5.992342350992E-03
     46 F   1 H    -1.401723926456E-01  6.809947885793E-02  4.940076576508E-01
     47 F   1 H    -1.401723926463E-01  4.319005211415E-01 -5.992342350992E-03
     48 F   1 H     1.401723926469E-01 -6.809947885899E-02 -4.940076576473E-01
     49 T   1 H     2.638841631710E-01 -2.629647288465E-01  1.666703742765E-01
     50 F   1 H    -2.638841631703E-01  2.370352711530E-01  3.333296257253E-01
     51 F   1 H    -2.638841631710E-01  2.629647288465E-01 -1.666703742765E-01
     52 F   1 H     2.638841631717E-01 -2.370352711540E-01 -3.333296257218E-01
     53 T   1 H    -2.950363310903E-01 -1.001727845935E-01  5.768861139064E-02
     54 F   1 H     2.950363310910E-01  3.998272154059E-01  4.423113886111E-01
     55 F   1 H     2.950363310903E-01  1.001727845935E-01 -5.768861139064E-02
     56 F   1 H    -2.950363310896E-01 -3.998272154070E-01 -4.423113886076E-01
     57 T   1 H    -4.199065513532E-01 -2.697031421054E-01 -1.038323882368E-01
     58 F   1 H     4.199065513539E-01  2.302968578940E-01 -3.961676117615E-01
     59 F   1 H     4.199065513532E-01  2.697031421054E-01  1.038323882368E-01
     60 F   1 H    -4.199065513525E-01 -2.302968578951E-01  3.961676117650E-01
     61 T   1 H    -3.080406139355E-01 -3.502796141919E-02  2.341923809660E-01
     62 F   1 H     3.080406139362E-01  4.649720385803E-01  2.658076190358E-01
     63 F   1 H     3.080406139355E-01  3.502796141919E-02 -2.341923809660E-01
     64 F   1 H    -3.080406139349E-01 -4.649720385813E-01 -2.658076190323E-01
     65 T   1 H     3.914809585435E-01 -4.707327215957E-01 -1.893215085281E-01
     66 F   1 H    -3.914809585428E-01  2.926727840377E-02 -3.106784914701E-01
     67 F   1 H    -3.914809585435E-01  4.707327215957E-01  1.893215085281E-01
     68 F   1 H     3.914809585442E-01 -2.926727840483E-02  3.106784914736E-01
     69 T   1 H    -7.061783543653E-02  4.148728940661E-01 -3.991430051461E-01
     70 F   1 H     7.061783543722E-02 -8.512710593444E-02 -1.008569948521E-01
     71 F   1 H     7.061783543653E-02 -4.148728940661E-01  3.991430051461E-01
     72 F   1 H    -7.061783543584E-02  8.512710593337E-02  1.008569948556E-01
     73 T   1 H     2.024688099388E-01  4.137378827169E-01 -3.481608543678E-01
     74 F   1 H    -2.024688099381E-01 -8.626211728359E-02 -1.518391456304E-01
     75 F   1 H    -2.024688099388E-01 -4.137378827169E-01  3.481608543678E-01
     76 F   1 H     2.024688099395E-01  8.626211728252E-02  1.518391456339E-01
     77 T   1 H     8.003417581453E-02  2.838113953897E-01 -3.013711971733E-01
     78 F   1 H    -8.003417581384E-02 -2.161886046108E-01 -1.986288028249E-01
     79 F   1 H    -8.003417581453E-02 -2.838113953897E-01  3.013711971733E-01
     80 F   1 H     8.003417581522E-02  2.161886046097E-01  1.986288028284E-01

 T = ATOM BELONGING TO THE ASYMMETRIC UNIT

 ****    4 SYMMOPS - TRANSLATORS IN FRACTIONAL UNITS
 **** MATRICES AND TRANSLATORS IN THE CRYSTALLOGRAPHIC REFERENCE FRAME
   V INV                    ROTATION MATRICES                   TRANSLATORS
   1   1  1.00  0.00  0.00  0.00  1.00  0.00  0.00  0.00  1.00  0.00  0.00  0.00
   2   2 -1.00  0.00 -0.00  0.00  1.00  0.00  0.00  0.00 -1.00  0.00  0.50  0.50
   3   3 -1.00 -0.00 -0.00  0.00 -1.00  0.00  0.00 -0.00 -1.00  0.00  0.00  0.00
   4   4  1.00 -0.00  0.00 -0.00 -1.00 -0.00 -0.00 -0.00  1.00  0.00  0.50  0.50

 DIRECT LATTICE VECTORS CARTESIAN COMPONENTS (ANGSTROM)
          X                    Y                    Z
   0.720989447791E+01   0.442778987477E-15  -0.261650497572E-01
  -0.241236350168E-17   0.940381802435E+01  -0.208048406804E-17
  -0.570628996689E+01   0.785428632498E-15   0.114280407380E+02


 CARTESIAN COORDINATES - PRIMITIVE CELL
 *******************************************************************************
 *      ATOM          X(ANGSTROM)         Y(ANGSTROM)         Z(ANGSTROM)
 *******************************************************************************
    1     8 O     2.772150214922E+00 -6.974516711100E-01  2.421058793380E+00
    2     8 O     1.584599279538E+00  4.004457341060E+00  3.266796525883E+00
    3     8 O    -2.772150214922E+00  6.974516711100E-01 -2.421058793380E+00
    4     8 O    -1.584599279548E+00 -4.004457341070E+00 -3.266796525843E+00
    5     8 O     7.799793272250E-01  4.725905154701E+00 -2.262371224659E+00
    6     8 O     2.073165656215E+00  2.399614252100E-02 -3.451649144321E+00
    7     8 O    -7.799793272250E-01 -4.725905154701E+00  2.262371224659E+00
    8     8 O    -2.073165656225E+00 -2.399614253100E-02  3.451649144361E+00
    9     7 N     2.963225250455E+00 -4.280695470106E+00 -1.824925716816E+00
   10     7 N    -1.100802670150E-01  4.212135420640E-01 -3.889094652164E+00
   11     7 N    -2.963225250455E+00  4.280695470106E+00  1.824925716816E+00
   12     7 N     1.100802670050E-01 -4.212135420740E-01  3.889094652204E+00
   13     6 C     2.867769845497E+00 -3.401037397788E+00 -7.308895555860E-01
   14     6 C    -1.462486205700E-02  1.300871614382E+00 -4.983130813394E+00
   15     6 C    -2.867769845497E+00  3.401037397788E+00  7.308895555860E-01
   16     6 C     1.462486204700E-02 -1.300871614392E+00  4.983130813434E+00
   17     6 C     1.803539153937E+00 -3.378098189410E+00  1.646411224520E-01
   18     6 C     1.049605829503E+00  1.323810822760E+00 -5.878661491432E+00
   19     6 C    -1.803539153937E+00  3.378098189410E+00 -1.646411224520E-01
   20     6 C    -1.049605829513E+00 -1.323810822770E+00  5.878661491472E+00
   21     6 C     1.791868349442E+00 -2.471968675394E+00  1.214804491138E+00
   22     6 C     2.564881145018E+00  2.229940336776E+00  4.473050828125E+00
   23     6 C    -1.791868349442E+00  2.471968675394E+00 -1.214804491138E+00
   24     6 C    -2.564881145028E+00 -2.229940336786E+00 -4.473050828085E+00
   25     6 C     2.842679067449E+00 -1.578839329258E+00  1.402926348935E+00
   26     6 C     1.514070427011E+00  3.123069682912E+00  4.284928970328E+00
   27     6 C    -2.842679067449E+00  1.578839329258E+00 -1.402926348935E+00
   28     6 C    -1.514070427021E+00 -3.123069682922E+00 -4.284928970288E+00
   29     6 C    -3.289055438076E+00 -1.622812778020E+00  5.492866978110E-01
   30     6 C     4.359104546260E-01  3.079096234150E+00  5.164733671209E+00
   31     6 C     3.289055438076E+00  1.622812778020E+00 -5.492866978110E-01
   32     6 C    -4.359104546360E-01 -3.079096234160E+00 -5.164733671169E+00
   33     6 C    -3.283286718440E+00 -2.520616429871E+00 -5.027306538880E-01
   34     6 C    -1.073462776030E+00  2.181292582299E+00 -5.185124665335E+00
   35     6 C     3.283286718440E+00  2.520616429871E+00  5.027306538880E-01
   36     6 C     1.073462776020E+00 -2.181292582309E+00  5.185124665375E+00
   37     6 C     1.970790603526E+00  4.569855023640E+00 -2.536298926757E+00
   38     6 C     8.823543799140E-01 -1.320539885400E-01 -3.177721442223E+00
   39     6 C    -1.970790603526E+00 -4.569855023640E+00  2.536298926757E+00
   40     6 C    -8.823543799240E-01  1.320539885300E-01  3.177721442263E+00
   41     6 C     2.409913264283E+00  3.722928718345E+00 -3.697947617879E+00
   42     6 C     4.432317191570E-01 -9.789802938350E-01 -2.016072751101E+00
   43     6 C    -2.409913264283E+00 -3.722928718345E+00  3.697947617879E+00
   44     6 C    -4.432317191670E-01  9.789802938250E-01  2.016072751141E+00
   45     1 H     9.764341166600E-01 -4.061513905437E+00  6.481311487500E-02
   46     1 H     1.876710866780E+00  6.403951067330E-01 -5.778833483855E+00
   47     1 H    -9.764341166600E-01  4.061513905437E+00 -6.481311487500E-02
   48     1 H    -1.876710866790E+00 -6.403951067430E-01  5.778833483895E+00
   49     1 H     9.515074863430E-01 -2.472872456895E+00  1.897811284790E+00
   50     1 H     3.405242008117E+00  2.229036555275E+00  3.790044034473E+00
   51     1 H    -9.515074863430E-01  2.472872456895E+00 -1.897811284790E+00
   52     1 H    -3.405242008127E+00 -2.229036555285E+00 -3.790044034433E+00
   53     1 H    -2.456368758693E+00 -9.420066373100E-01  6.669874413740E-01
   54     1 H    -3.967762247570E-01  3.759902374860E+00  5.047032927646E+00
   55     1 H     2.456368758693E+00  9.420066373100E-01 -6.669874413740E-01
   56     1 H     3.967762247470E-01 -3.759902374870E+00 -5.047032927606E+00
   57     1 H    -2.434984210606E+00 -2.536239268955E+00 -1.175613886884E+00
   58     1 H    -1.921765283864E+00  2.165669743215E+00 -4.512241432339E+00
   59     1 H     2.434984210606E+00  2.536239268955E+00  1.175613886884E+00
   60     1 H     1.921765283854E+00 -2.165669743225E+00  4.512241432379E+00
   61     1 H    -3.557309955214E+00 -3.293965749500E-01  2.684419968199E+00
   62     1 H     7.041649717640E-01  4.372512437220E+00  3.029600400821E+00
   63     1 H     3.557309955214E+00  3.293965749500E-01 -2.684419968199E+00
   64     1 H    -7.041649717740E-01 -4.372512437230E+00 -3.029600400781E+00
   65     1 H    -3.307034652070E+00 -4.426684851993E+00 -2.147651981041E+00
   66     1 H    -1.049714842400E+00  2.752241601770E-01 -3.540203338182E+00
   67     1 H     3.307034652070E+00  4.426684851993E+00  2.147651981041E+00
   68     1 H     1.049714842390E+00 -2.752241601870E-01  3.540203338222E+00
   69     1 H     1.768478583864E+00  3.901389199033E+00 -4.559574803920E+00
   70     1 H     1.084666399576E+00 -8.005198131470E-01 -1.154445565060E+00
   71     1 H    -1.768478583864E+00 -3.901389199033E+00  4.559574803920E+00
   72     1 H    -1.084666399586E+00  8.005198131370E-01  1.154445565100E+00
   73     1 H     3.446485544870E+00  3.890715758850E+00 -3.984094033579E+00
   74     1 H    -5.933405614300E-01 -8.111932533300E-01 -1.729926335401E+00
   75     1 H    -3.446485544870E+00 -3.890715758850E+00  3.984094033579E+00
   76     1 H     5.933405614200E-01  8.111932533200E-01  1.729926335441E+00
   77     1 H     2.296749400989E+00  2.668910715482E+00 -3.446176416749E+00
   78     1 H     5.563955824510E-01 -2.032998296698E+00 -2.267843952231E+00
   79     1 H    -2.296749400989E+00 -2.668910715482E+00  3.446176416749E+00
   80     1 H    -5.563955824610E-01  2.032998296688E+00  2.267843952271E+00

 *******************************************************************************
 STARTING BASIS SET HANDLING 
 *******************************************************************************

 Loading internal basis set: DEF2-MSVP           

 Please cite in your publication:
 Fully Optimized Contracted Gaussian Basis Sets for Atoms Li to Kr. A. Schäfer, H. Horn and R. Ahlrichs; J. Chem. Phys. 97, 2571 (1992).                                                                                                                         
 S. Grimme, J. G. Brandenburg, C. Bannwarth, and A. Hansen, J. Chem. Phys., 143, 054107 (2015).                                                                                                                                                                  

 *******************************************************************************
 LOCAL ATOMIC FUNCTIONS BASIS SET
 *******************************************************************************
   ATOM   X(AU)   Y(AU)   Z(AU)  N. TYPE  EXPONENT  S COEF   P COEF   D/F/G COEF
 *******************************************************************************
   1 O    5.239  -1.318   4.575
                                  1 S  
                                         6.773E+03 1.727E-03 0.000E+00 0.000E+00
                                         1.017E+03 1.325E-02 0.000E+00 0.000E+00
                                         2.313E+02 6.603E-02 0.000E+00 0.000E+00
                                         6.501E+01 2.353E-01 0.000E+00 0.000E+00
                                         2.050E+01 5.498E-01 0.000E+00 0.000E+00
                                  2 S  
                                         6.716E+00 1.000E+00 0.000E+00 0.000E+00
                                  3 S  
                                         1.147E+00 1.000E+00 0.000E+00 0.000E+00
                                  4 S  
                                         3.342E-01 1.000E+00 0.000E+00 0.000E+00
                           5-     7 P  
                                         1.769E+01 0.000E+00 4.359E-02 0.000E+00
                                         3.854E+00 0.000E+00 2.318E-01 0.000E+00
                                         1.047E+00 0.000E+00 5.146E-01 0.000E+00
                           8-    10 P  
                                         2.759E-01 0.000E+00 1.000E+00 0.000E+00
                          11-    15 D  
                                         8.000E-01 0.000E+00 0.000E+00 1.000E+00
   2 O    2.994   7.567   6.173
   3 O   -5.239   1.318  -4.575
   4 O   -2.994  -7.567  -6.173
   5 O    1.474   8.931  -4.275
   6 O    3.918   0.045  -6.523
   7 O   -1.474  -8.931   4.275
   8 O   -3.918  -0.045   6.523
   9 N    5.600  -8.089  -3.449
                                121 S  
                                         5.072E+03 1.707E-03 0.000E+00 0.000E+00
                                         7.614E+02 1.309E-02 0.000E+00 0.000E+00
                                         1.732E+02 6.510E-02 0.000E+00 0.000E+00
                                         4.867E+01 2.305E-01 0.000E+00 0.000E+00
                                         1.533E+01 5.330E-01 0.000E+00 0.000E+00
                                122 S  
                                         5.019E+00 1.000E+00 0.000E+00 0.000E+00
                                123 S  
                                         8.355E-01 1.000E+00 0.000E+00 0.000E+00
                                124 S  
                                         2.463E-01 1.000E+00 0.000E+00 0.000E+00
                         125-   127 P  
                                         1.355E+01 0.000E+00 4.063E-02 0.000E+00
                                         2.918E+00 0.000E+00 2.209E-01 0.000E+00
                                         7.983E-01 0.000E+00 5.186E-01 0.000E+00
                         128-   130 P  
                                         2.190E-01 0.000E+00 1.000E+00 0.000E+00
                         131-   135 D  
                                         8.000E-01 0.000E+00 0.000E+00 1.000E+00
  10 N   -0.208   0.796  -7.349
  11 N   -5.600   8.089   3.449
  12 N    0.208  -0.796   7.349
  13 C    5.419  -6.427  -1.381
                                181 S  
                                         3.624E+03 1.634E-03 0.000E+00 0.000E+00
                                         5.440E+02 1.252E-02 0.000E+00 0.000E+00
                                         1.237E+02 6.211E-02 0.000E+00 0.000E+00
                                         3.476E+01 2.182E-01 0.000E+00 0.000E+00
                                         1.093E+01 4.980E-01 0.000E+00 0.000E+00
                                182 S  
                                         3.574E+00 1.000E+00 0.000E+00 0.000E+00
                                183 S  
                                         5.748E-01 1.000E+00 0.000E+00 0.000E+00
                                184 S  
                                         1.730E-01 1.000E+00 0.000E+00 0.000E+00
                         185-   187 P  
                                         9.443E+00 0.000E+00 3.790E-02 0.000E+00
                                         2.002E+00 0.000E+00 2.082E-01 0.000E+00
                                         5.463E-01 0.000E+00 5.047E-01 0.000E+00
                         188-   190 P  
                                         1.520E-01 0.000E+00 1.000E+00 0.000E+00
                         191-   195 D  
                                         8.000E-01 0.000E+00 0.000E+00 1.000E+00
  14 C   -0.028   2.458  -9.417
  15 C   -5.419   6.427   1.381
  16 C    0.028  -2.458   9.417
  17 C    3.408  -6.384   0.311
  18 C    1.983   2.502 -11.109
  19 C   -3.408   6.384  -0.311
  20 C   -1.983  -2.502  11.109
  21 C    3.386  -4.671   2.296
  22 C    4.847   4.214   8.453
  23 C   -3.386   4.671  -2.296
  24 C   -4.847  -4.214  -8.453
  25 C    5.372  -2.984   2.651
  26 C    2.861   5.902   8.097
  27 C   -5.372   2.984  -2.651
  28 C   -2.861  -5.902  -8.097
  29 C   -6.215  -3.067   1.038
  30 C    0.824   5.819   9.760
  31 C    6.215   3.067  -1.038
  32 C   -0.824  -5.819  -9.760
  33 C   -6.205  -4.763  -0.950
  34 C   -2.029   4.122  -9.798
  35 C    6.205   4.763   0.950
  36 C    2.029  -4.122   9.798
  37 C    3.724   8.636  -4.793
  38 C    1.667  -0.250  -6.005
  39 C   -3.724  -8.636   4.793
  40 C   -1.667   0.250   6.005
  41 C    4.554   7.035  -6.988
  42 C    0.838  -1.850  -3.810
  43 C   -4.554  -7.035   6.988
  44 C   -0.838   1.850   3.810
  45 H    1.845  -7.675   0.122
                                661 S  
                                         1.874E+01 1.968E-02 0.000E+00 0.000E+00
                                         2.826E+00 1.380E-01 0.000E+00 0.000E+00
                                         6.401E-01 4.783E-01 0.000E+00 0.000E+00
                                662 S  
                                         1.756E-01 1.000E+00 0.000E+00 0.000E+00
  46 H    3.546   1.210 -10.920
  47 H   -1.845   7.675  -0.122
  48 H   -3.546  -1.210  10.920
  49 H    1.798  -4.673   3.586
  50 H    6.435   4.212   7.162
  51 H   -1.798   4.673  -3.586
  52 H   -6.435  -4.212  -7.162
  53 H   -4.642  -1.780   1.260
  54 H   -0.750   7.105   9.538
  55 H    4.642   1.780  -1.260
  56 H    0.750  -7.105  -9.538
  57 H   -4.601  -4.793  -2.222
  58 H   -3.632   4.093  -8.527
  59 H    4.601   4.793   2.222
  60 H    3.632  -4.093   8.527
  61 H   -6.722  -0.622   5.073
  62 H    1.331   8.263   5.725
  63 H    6.722   0.622  -5.073
  64 H   -1.331  -8.263  -5.725
  65 H   -6.249  -8.365  -4.058
  66 H   -1.984   0.520  -6.690
  67 H    6.249   8.365   4.058
  68 H    1.984  -0.520   6.690
  69 H    3.342   7.373  -8.616
  70 H    2.050  -1.513  -2.182
  71 H   -3.342  -7.373   8.616
  72 H   -2.050   1.513   2.182
  73 H    6.513   7.352  -7.529
  74 H   -1.121  -1.533  -3.269
  75 H   -6.513  -7.352   7.529
  76 H    1.121   1.533   3.269
  77 H    4.340   5.044  -6.512
  78 H    1.051  -3.842  -4.286
  79 H   -4.340  -5.044   6.512
  80 H   -1.051   3.842   4.286

 *******************************************************************************
 FINISHED BASIS SET HANDLING 
 *******************************************************************************

 INFORMATION **** SET_MPP **** PCRYSTAL CALCULATION
 INFORMATION **** READM2 **** NEW DEFAULT: FOCK/KS MATRIX MIXING SET TO 30 %
 INFORMATION **** READM2 **** NEW DEFAULT: FULL DIRECT SCF MODE
 INFORMATION **** READM2 **** NEW DEFAULT: COULOMB BIPOLAR BUFFER SET TO 32 Mb
 INFORMATION **** READM2 **** NEW DEFAULT: EXCHANGE BIPOLAR BUFFER SET TO 32 Mb

 *******************************************************************************
 NEW DEFAULT: DFT INTEGRATION GRID INCREASED TO XLGRID
 NEW DEFAULT: DIIS ACCELERATOR ACTIVE
 USE KEYWORD NODIIS TO TURN IT OFF
 *******************************************************************************

 INFORMATION **** RDDFTP **** PBEh-3c calculation
 INFORMATION **** RDDFTP **** PBEh hybrid functional combined with D3 and gCP

PLEASE CITE:
(1) PBEh-3c Reference
 S. Grimme, J. G. Brandenburg, C. Bannwarth, and A. Hansen, 
 J. Chem. Phys. 143, 054107 (2015)
(2) DFT-D3 Reference
 S. Grimme, J. Antony, S. Ehrlich, and H. Krieg, J. Chem. Phys. 132, 154104 (2010)
(3) gCP Reference
 H. Kruse and S. Grimme J. Chem. Phys, 136, 154101 (2012)
 J. G. Brandenburg, M. Alessio, B. Civalleri, M. F. Peintinger
 T. Bredow, and S. Grimme, J. Phys. Chem. A, 117, 9282 (2013) 

 WARNING **** RDDFTP **** PBEh-3c has to be combined with def2-mSVP basis set
 WARNING **** RDDFTP **** Note: Harmonic frequencies are scaled by 0.95
 WARNING **** RDDFTP **** as recommended in original publication
 INFORMATION **** TOLDEE **** SCF TOL ON TOTAL ENERGY SET TO           9
 INFORMATION **** TOLINTEG **** COULOMB AND EXCHANGE SERIES TOLERANCES MODIFIED
 INFORMATION **** MAXCYCLE **** MAX NUMBER OF SCF CYCLES SET TO          30
 WARNING **** READM2 **** PROBABLE LOSS IN FREQCALC ACCURACY; SCF TOL LT          10
 *******************************************************************************
 N. OF ATOMS PER CELL        80  COULOMB OVERLAP TOL         (T1) 10**   -8
 NUMBER OF SHELLS           380  COULOMB PENETRATION TOL     (T2) 10**   -8
 NUMBER OF AO               732  EXCHANGE OVERLAP TOL        (T3) 10**   -8
 N. OF ELECTRONS PER CELL   320  EXCHANGE PSEUDO OVP (F(G))  (T4) 10**   -8
 CORE ELECTRONS PER CELL     88  EXCHANGE PSEUDO OVP (P(G))  (T5) 10**  -24
 N. OF SYMMETRY OPERATORS     4  POLE ORDER IN MONO ZONE                  4
 *******************************************************************************
 TYPE OF CALCULATION :  RESTRICTED CLOSED SHELL
 KOHN-SHAM HAMILTONIAN

 (EXCHANGE)[CORRELATION] FUNCTIONAL:(PBEh-3c)[PBEh-3c]


 HYBRID EXCHANGE - PERCENTAGE OF FOCK EXCHANGE    42.0000

 CAPPA:IS1  4;IS2  4;IS3  2; K PTS MONK NET  18; SYMMOPS:K SPACE   4;G SPACE   4

 *******************************************************************************
 MAX NUMBER OF SCF CYCLES      30  CONVERGENCE ON DELTAP        10**-19
 WEIGHT OF F(I) IN F(I+1)      50% CONVERGENCE ON ENERGY        10**- 9
 SHRINK. FACT.(MONKH.)    4  4  2  NUMBER OF K POINTS IN THE IBZ     18
 SHRINKING FACTOR(GILAT NET)    4  NUMBER OF K POINTS(GILAT NET)     18
 *******************************************************************************
 *** K POINTS COORDINATES (OBLIQUE COORDINATES IN UNITS OF IS =  4)
   1-R(  0  0  0)   2-C(  1  0  0)   3-R(  2  0  0)   4-C(  0  1  0)
   5-C(  1  1  0)   6-C(  2  1  0)   7-R(  0  2  0)   8-C(  1  2  0)
   9-R(  2  2  0)  10-R(  0  0  1)  11-C(  1  0  1)  12-R(  2  0  1)
  13-C(  0  1  1)  14-C(  1  1  1)  15-C(  2  1  1)  16-R(  0  2  1)
  17-C(  1  2  1)  18-R(  2  2  1)

 DIRECT LATTICE VECTORS COMPON. (A.U.)     RECIP. LATTICE VECTORS COMPON. (A.U.) 
        X            Y            Z              X            Y            Z
   13.6247260    0.0000000   -0.0494448      0.4619977    0.0000000    0.2306863
   -0.0000000   17.7706407   -0.0000000     -0.0000000    0.3535711   -0.0000000
  -10.7833253    0.0000000   21.5958672      0.0010578    0.0000000    0.2914720

 DISK SPACE FOR EIGENVECTORS (FTN 10)    15003072 REALS

 SYMMETRY ADAPTION OF THE BLOCH FUNCTIONS ENABLED
 TTTTTTTTTTTTTTTTTTTTTTTTTTTTTT gordsh1     TELAPSE        4.50 TCPU        1.64

 MATRIX SIZE: P(G) 2212056, F(G)  206930, P(G) IRR  280559, F(G) IRR   52508
 MAX G-VECTOR INDEX FOR 1- AND 2-ELECTRON INTEGRALS  95

 TTTTTTTTTTTTTTTTTTTTTTTTTTTTTT INPUT       TELAPSE        4.63 TCPU        1.76

 NEIGHBORS OF THE NON-EQUIVALENT ATOMS

 N = NUMBER OF NEIGHBORS AT DISTANCE R
    ATOM  N     R/ANG      R/AU   NEIGHBORS (ATOM LABELS AND CELL INDICES)
   1 O    1     0.9833     1.8582   61 H    1 0 0
   1 O    1     1.3485     2.5483   25 C    0 0 0
   1 O    1     2.0970     3.9628   68 H    0 0 0
   1 O    1     2.3590     4.4579   21 C    0 0 0
   1 O    1     2.4037     4.5424   29 C    1 0 0
   1 O    1     2.5963     4.9062   49 H    0 0 0

   5 O    1     1.2318     2.3278   37 C    0 0 0
   5 O    1     1.6984     3.2095   64 H    0 1 0
   5 O    1     2.2618     4.2742    9 N    0 1 0
   5 O    1     2.3924     4.5210   41 C    0 0 0
   5 O    1     2.4154     4.5645   45 H    0 1 0
   5 O    1     2.6333     4.9762   69 H    0 0 0

   9 N    1     1.0129     1.9141   65 H    1 0 0
   9 N    1     1.3406     2.5333   37 C    0-1 0
   9 N    1     1.4071     2.6590   13 C    0 0 0
   9 N    1     2.2618     4.2742    5 O    0-1 0
   9 N    1     2.3887     4.5139   33 C    1 0 0
   9 N    1     2.4031     4.5412   41 C    0-1 0

  13 C    1     1.3911     2.6287   17 C    0 0 0
  13 C    1     1.3918     2.6301   33 C    1 0 0
  13 C    1     1.4071     2.6590    9 N    0 0 0
  13 C    1     2.0507     3.8753   65 H    1 0 0
  13 C    1     2.1463     4.0560   57 H    1 0 0
  13 C    1     2.1556     4.0735   45 H    0 0 0

  17 C    1     1.0776     2.0363   45 H    0 0 0
  17 C    1     1.3871     2.6212   21 C    0 0 0
  17 C    1     1.3911     2.6287   13 C    0 0 0
  17 C    1     2.1329     4.0306   49 H    0 0 0
  17 C    1     2.3924     4.5210   33 C    1 0 0
  17 C    1     2.4188     4.5708   25 C    0 0 0

  21 C    1     1.0829     2.0464   49 H    0 0 0
  21 C    1     1.3871     2.6212   17 C    0 0 0
  21 C    1     1.3919     2.6302   25 C    0 0 0
  21 C    1     2.1246     4.0150   45 H    0 0 0
  21 C    1     2.3590     4.4579    1 O    0 0 0
  21 C    1     2.3942     4.5243   29 C    1 0 0

  25 C    1     1.3485     2.5483    1 O    0 0 0
  25 C    1     1.3919     2.6302   21 C    0 0 0
  25 C    1     1.3923     2.6310   29 C    1 0 0
  25 C    1     1.9475     3.6803   61 H    1 0 0
  25 C    1     2.1496     4.0621   49 H    0 0 0
  25 C    1     2.1535     4.0696   53 H    1 0 0

  29 C    1     1.0820     2.0447   53 H    0 0 0
  29 C    1     1.3830     2.6136   33 C    0 0 0
  29 C    1     1.3923     2.6310   25 C   -1 0 0
  29 C    1     2.1305     4.0261   57 H    0 0 0
  29 C    1     2.3942     4.5243   21 C   -1 0 0
  29 C    1     2.4037     4.5424    1 O   -1 0 0

  33 C    1     1.0829     2.0464   57 H    0 0 0
  33 C    1     1.3830     2.6136   29 C    0 0 0
  33 C    1     1.3918     2.6301   13 C   -1 0 0
  33 C    1     2.1317     4.0283   53 H    0 0 0
  33 C    1     2.3887     4.5139    9 N   -1 0 0
  33 C    1     2.3924     4.5210   17 C   -1 0 0

  37 C    1     1.2318     2.3278    5 O    0 0 0
  37 C    1     1.3406     2.5333    9 N    0 1 0
  37 C    1     1.5032     2.8406   41 C    0 0 0
  37 C    1     2.0075     3.7937   65 H    1 1 0
  37 C    1     2.1325     4.0299   77 H    0 0 0
  37 C    1     2.1404     4.0448   69 H    0 0 0

  41 C    1     1.0884     2.0567   73 H    0 0 0
  41 C    1     1.0889     2.0577   69 H    0 0 0
  41 C    1     1.0896     2.0590   77 H    0 0 0
  41 C    1     1.5032     2.8406   37 C    0 0 0
  41 C    1     2.3924     4.5210    5 O    0 0 0
  41 C    1     2.4031     4.5412    9 N    0 1 0

  45 H    1     1.0776     2.0363   17 C    0 0 0
  45 H    1     2.1246     4.0150   21 C    0 0 0
  45 H    1     2.1556     4.0735   13 C    0 0 0
  45 H    1     2.3390     4.4201   47 H    0-1 0
  45 H    1     2.4154     4.5645    5 O    0-1 0
  45 H    1     2.4258     4.5840   49 H    0 0 0

  49 H    1     1.0829     2.0464   21 C    0 0 0
  49 H    1     2.1329     4.0306   17 C    0 0 0
  49 H    1     2.1496     4.0621   25 C    0 0 0
  49 H    1     2.4258     4.5840   45 H    0 0 0
  49 H    1     2.5963     4.9062    1 O    0 0 0
  49 H    1     2.7453     5.1879   68 H    0 0 0

  53 H    1     1.0820     2.0447   29 C    0 0 0
  53 H    1     2.1317     4.0283   33 C    0 0 0
  53 H    1     2.1535     4.0696   25 C   -1 0 0
  53 H    1     2.2706     4.2908   72 H    0 0 0
  53 H    1     2.3785     4.4948   61 H    0 0 0
  53 H    1     2.4366     4.6046   57 H    0 0 0

  57 H    1     1.0829     2.0464   33 C    0 0 0
  57 H    1     2.1305     4.0261   29 C    0 0 0
  57 H    1     2.1463     4.0560   13 C   -1 0 0
  57 H    1     2.2976     4.3419   65 H    0 0 0
  57 H    1     2.4366     4.6046   53 H    0 0 0
  57 H    1     2.5835     4.8822   74 H    0 0 0

  61 H    1     0.9833     1.8582    1 O   -1 0 0
  61 H    1     1.6984     3.2095    8 O    0 0 0
  61 H    1     1.9475     3.6803   25 C   -1 0 0
  61 H    1     2.3785     4.4948   53 H    0 0 0
  61 H    1     2.5107     4.7446   29 C    0 0 0
  61 H    1     2.7488     5.1944   68 H   -1 0 0

  65 H    1     1.0129     1.9141    9 N   -1 0 0
  65 H    1     2.0075     3.7937   37 C   -1-1 0
  65 H    1     2.0507     3.8753   13 C   -1 0 0
  65 H    1     2.0970     3.9628    4 O    0 0 0
  65 H    1     2.1600     4.0818   73 H   -1-1 0
  65 H    1     2.2976     4.3419   57 H    0 0 0

  69 H    1     1.0889     2.0577   41 C    0 0 0
  69 H    1     1.7429     3.2936   77 H    0 0 0
  69 H    1     1.7740     3.3523   73 H    0 0 0
  69 H    1     2.1404     4.0448   37 C    0 0 0
  69 H    1     2.2706     4.2908   56 H    0 1 0
  69 H    1     2.6333     4.9762    5 O    0 0 0

  73 H    1     1.0884     2.0567   41 C    0 0 0
  73 H    1     1.7618     3.3294   77 H    0 0 0
  73 H    1     1.7740     3.3523   69 H    0 0 0
  73 H    1     2.1600     4.0818   65 H    1 1 0
  73 H    1     2.1760     4.1121   37 C    0 0 0
  73 H    1     2.5327     4.7860    9 N    0 1 0

  77 H    1     1.0896     2.0590   41 C    0 0 0
  77 H    1     1.7429     3.2936   69 H    0 0 0
  77 H    1     1.7618     3.3294   73 H    0 0 0
  77 H    1     2.1325     4.0299   37 C    0 0 0
  77 H    1     2.6544     5.0160    6 O    0 0 0
  77 H    1     2.7645     5.2242   63 H    0 0 0


 SYMMETRY ALLOWED INTERNAL DEGREE(S) OF FREEDOM:  60
 TTTTTTTTTTTTTTTTTTTTTTTTTTTTTT SYMM        TELAPSE        4.66 TCPU        1.79
 TTTTTTTTTTTTTTTTTTTTTTTTTTTTTT INT_SCREEN  TELAPSE        5.04 TCPU        2.16

 *******************************************************************************
 *                                                                             *
 *                                                                             *
 *         FFFFF  RRRR   EEEE   QQQ   U   U  EEEE  N   N   CCC  Y   Y          *
 *         F      R   R  E     Q   Q  U   U  E     NN  N  C      Y Y           *
 *         FFF    RRRR   EEEE  Q   Q  U   U  EEEE  N N N  C       Y            *
 *         F      R   R  E     Q  QQ  U   U  E     N  NN  C       Y            *
 *         F      R   R  EEEE   QQ Q   UUU   EEEE  N   N   CCC    Y            *
 *                                                                             *
 *                                                                             *
 * CALCULATION OF PHONON FREQUENCIES AT THE GAMMA POINT.                       *
 *                                                                             *
 * SYMMETRY IS EXPLOITED TO BUILD THE TOTAL HESSIAN MATRIX.                    *
 * (F. PASCALE PHD THESIS TURIN-PARIS 2002)                                    *
 *                                                                             *
 *******************************************************************************


 * INTENSITIES COMPUTED VIA THE BERRY PHASE APPROACH                           *
 *                                                                             *
 * REFERENCES TO BE QUOTED WHEN USING THIS MODULE:                             *
 *                                                                             *
 * F. Pascale, C.M. Zicovich-Wilson, F. Lopez, B. Civalleri                    *
 * R. Orlando, R. Dovesi                                                       *
 * The calculation of the vibration frequencies of crystalline                 *
 * compounds and its implementation in the CRYSTAL code                        *
 * J. Comput. Chem. 25 (2004) 888-897                                          *
 *                                                                             *
 * C.M. Zicovich-Wilson, F. Pascale, C. Roetti, V.R. Saunders,                 *
 * R. Orlando, R. Dovesi                                                       *
 * The calculation of the vibration frequencies of alpha-quartz:               *
 * the effect of hamiltonian and basis set                                     *
 * J. Comput. Chem. 25 (2004) 1873-1881                                        *
 *******************************************************************************



 ATOMS ISOTOPIC MASS (AMU) FOR FREQUENCY CALCULATION 

    1 O      15.9949    2 O      15.9949    3 O      15.9949    4 O      15.9949
    5 O      15.9949    6 O      15.9949    7 O      15.9949    8 O      15.9949
    9 N      14.0031   10 N      14.0031   11 N      14.0031   12 N      14.0031
   13 C      12.0000   14 C      12.0000   15 C      12.0000   16 C      12.0000
   17 C      12.0000   18 C      12.0000   19 C      12.0000   20 C      12.0000
   21 C      12.0000   22 C      12.0000   23 C      12.0000   24 C      12.0000
   25 C      12.0000   26 C      12.0000   27 C      12.0000   28 C      12.0000
   29 C      12.0000   30 C      12.0000   31 C      12.0000   32 C      12.0000
   33 C      12.0000   34 C      12.0000   35 C      12.0000   36 C      12.0000
   37 C      12.0000   38 C      12.0000   39 C      12.0000   40 C      12.0000
   41 C      12.0000   42 C      12.0000   43 C      12.0000   44 C      12.0000
   45 H       1.0078   46 H       1.0078   47 H       1.0078   48 H       1.0078
   49 H       1.0078   50 H       1.0078   51 H       1.0078   52 H       1.0078
   53 H       1.0078   54 H       1.0078   55 H       1.0078   56 H       1.0078
   57 H       1.0078   58 H       1.0078   59 H       1.0078   60 H       1.0078
   61 H       1.0078   62 H       1.0078   63 H       1.0078   64 H       1.0078
   65 H       1.0078   66 H       1.0078   67 H       1.0078   68 H       1.0078
   69 H       1.0078   70 H       1.0078   71 H       1.0078   72 H       1.0078
   73 H       1.0078   74 H       1.0078   75 H       1.0078   76 H       1.0078
   77 H       1.0078   78 H       1.0078   79 H       1.0078   80 H       1.0078

 INFORMATION CONCERNING THE SCF+GRADIENT CALCULATIONS REQUIRED FOR
 GENERATING FREQUENCIES. IN PRINCIPLE 3N+1 SCF + GRADIENT
 CALCULATIONS  ARE REQUIRED;
 FOR EACH OF THEM THE REMAINING POINT SYMMETRY IS INDICATED.
 POINT SYMMETRY PERMITS TO GENERATE GRADIENTS FOR DISPLACEMENT B 
 STARTING FROM THE GRADIENT GENERATED BY DISPLACEMENT A.

   N   LABEL SYMBOL DISPLACEMENT     SYM. 

   1     EQUILIBRIUM GEOMETRY            4

   2      1   O            DX           1
   3      1   O            DY           1
   4      1   O            DZ           1
   5      5   O            DX           1
   6      5   O            DY           1
   7      5   O            DZ           1
   8      9   N            DX           1
   9      9   N            DY           1
  10      9   N            DZ           1
  11     13   C            DX           1
  12     13   C            DY           1
  13     13   C            DZ           1
  14     17   C            DX           1
  15     17   C            DY           1
  16     17   C            DZ           1
  17     21   C            DX           1
  18     21   C            DY           1
  19     21   C            DZ           1
  20     25   C            DX           1
  21     25   C            DY           1
  22     25   C            DZ           1
  23     29   C            DX           1
  24     29   C            DY           1
  25     29   C            DZ           1
  26     33   C            DX           1
  27     33   C            DY           1
  28     33   C            DZ           1
  29     37   C            DX           1
  30     37   C            DY           1
  31     37   C            DZ           1
  32     41   C            DX           1
  33     41   C            DY           1
  34     41   C            DZ           1
  35     45   H            DX           1
  36     45   H            DY           1
  37     45   H            DZ           1
  38     49   H            DX           1
  39     49   H            DY           1
  40     49   H            DZ           1
  41     53   H            DX           1
  42     53   H            DY           1
  43     53   H            DZ           1
  44     57   H            DX           1
  45     57   H            DY           1
  46     57   H            DZ           1
  47     61   H            DX           1
  48     61   H            DY           1
  49     61   H            DZ           1
  50     65   H            DX           1
  51     65   H            DY           1
  52     65   H            DZ           1
  53     69   H            DX           1
  54     69   H            DY           1
  55     69   H            DZ           1
  56     73   H            DX           1
  57     73   H            DY           1
  58     73   H            DZ           1
  59     77   H            DX           1
  60     77   H            DY           1
  61     77   H            DZ           1
 USE OF RESIDUAL SYMMETRY AFTER DISPLACEMENT

 NUMERICAL GRADIENT COMPUTED WITH A SINGLE DISPLACEMENT (+DX) FOR EACH
 CARTESIAN COORDINATE WITH RESPECT TO THE EQUILIBRIUM CONFIGURATION
 DX=  0.003 ANGSTROM
 NUMBER OF IRREDUCIBLE ATOMS                    20
 NUMBER OF SCF+GRADIENT CALCULATIONS            61

  ATOM  SYMOP  ORDER
    1      1      1
    5      1      1
    9      1      1
   13      1      1
   17      1      1
   21      1      1
   25      1      1
   29      1      1
   33      1      1
   37      1      1
   41      1      1
   45      1      1
   49      1      1
   53      1      1
   57      1      1
   61      1      1
   65      1      1
   69      1      1
   73      1      1
   77      1      1

 ATOM  : IRREDUCIBLE ATOM
 SYMOP : NUMBER OF SYMMETRY OPERATORS THAT DOESN'T MOVE THE IRREDUCIBLE ATOM
 ORDER : MAXIMUM ORDER AMONG THE OPERATORS OF THE IRREDUCIBLE ATOM

 *******************************************************************************


 GCALCO - MAX INDICES DIRECT LATTICE VECTOR    20    14    11
 NO.OF VECTORS CREATED 6999 STARS 1868 RMAX   205.79798 BOHR

 CAPPA:IS1  4;IS2  4;IS3  2; K PTS MONK NET  18; SYMMOPS:K SPACE   4;G SPACE   4

 TTTTTTTTTTTTTTTTTTTTTTTTTTTTTT gordsh1     TELAPSE        5.07 TCPU        2.19

 MATRIX SIZE: P(G) 2212056, F(G)  206930, P(G) IRR  280559, F(G) IRR   52508
 MAX G-VECTOR INDEX FOR 1- AND 2-ELECTRON INTEGRALS  95

 TTTTTTTTTTTTTTTTTTTTTTTTTTTTTT INPUT       TELAPSE        5.08 TCPU        2.21

 SYMMETRY ALLOWED INTERNAL DEGREE(S) OF FREEDOM:  60
 TTTTTTTTTTTTTTTTTTTTTTTTTTTTTT SYMM        TELAPSE        5.11 TCPU        2.23
 TTTTTTTTTTTTTTTTTTTTTTTTTTTTTT INT_SCREEN  TELAPSE        5.12 TCPU        2.24
 INFORMATION **** EXCBUF **** EXCH. BIPO BUFFER: WORDS USED =     3767508

 DFT PARAMETERS

     ATOM       ELECTRONS   NET CHARGE   R(ANGSTROM)
   1   8  O       8.0000      0.0000     0.74000000
   9   7  N       7.0000      0.0000     0.74000000
  13   6  C       6.0000      0.0000     0.77000000
  45   1  H       1.0000      0.0000     1.11000000

 SIZE OF GRID=    1002917
 TTTTTTTTTTTTTTTTTTTTTTTTTTTTTT MAKE_GRID2  TELAPSE        8.54 TCPU        5.67
 BECKE WEIGHT FUNCTION
 RADSAFE =     2.00
 TOLERANCES - DENSITY:10**- 6; POTENTIAL:10**- 9; GRID WGT:10**-14

 RADIAL INTEGRATION  - INTERVALS (POINTS,UPPER LIMIT):            1( 99,  4.0*R)

 ANGULAR INTEGRATION - INTERVALS (ACCURACY LEVEL [N. POINTS] UPPER LIMIT):
  1(  6[ 146]   0.2)  2( 11[ 302]   0.5)  3( 14[ 590]   0.9)  4( 18[1454]   3.5)
  5( 14[ 590]9999.0)
 TTTTTTTTTTTTTTTTTTTTTTTTTTTTTT INT_CALC    TELAPSE        8.59 TCPU        5.72

 *******************************************************************************
 F1 vol step4 freq - PBEh-3c                                                     
 CRYSTAL - SCF - TYPE OF CALCULATION :  RESTRICTED CLOSED SHELL
 *******************************************************************************

 CAPPA:IS1  4;IS2  4;IS3  2; K PTS MONK NET  18; SYMMOPS:K SPACE   4;G SPACE   4

 TTTTTTTTTTTTTTTTTTTTTTTTTTTTTT SDIK        TELAPSE        8.86 TCPU        5.98

 AAAAAAAAAAAAAAAAAAAAAAAAAAAAAAAAAAAAAAAAAAAAAAAAAAAAAAAAAAAAAAAAAAAAAAAAAAAAAAA
         ATOMIC WAVEFUNCTION(S)


 NUCLEAR CHARGE  8.0  SYMMETRY SPECIES            S    P
 N. ELECTRONS    8.0  NUMBER OF PRIMITIVE GTOS    8    4
                      NUMBER OF CONTRACTED GTOS   4    2
                      NUMBER OF CLOSED SHELLS     2    0
                      OPEN SHELL OCCUPATION       0    4

  ZNUC SCFIT  TOTAL HF ENERGY   KINETIC ENERGY   VIRIAL THEOREM ACCURACY
   8.0  12   -7.477373220E+01  7.477365593E+01 -2.000001020E+00  3.8E-06

 NUCLEAR CHARGE  7.0  SYMMETRY SPECIES            S    P
 N. ELECTRONS    7.0  NUMBER OF PRIMITIVE GTOS    8    4
                      NUMBER OF CONTRACTED GTOS   4    2
                      NUMBER OF CLOSED SHELLS     2    0
                      OPEN SHELL OCCUPATION       0    3

  ZNUC SCFIT  TOTAL HF ENERGY   KINETIC ENERGY   VIRIAL THEOREM ACCURACY
   7.0   9   -5.437948210E+01  5.437948297E+01 -1.999999984E+00  1.2E-06

 NUCLEAR CHARGE  6.0  SYMMETRY SPECIES            S    P
 N. ELECTRONS    6.0  NUMBER OF PRIMITIVE GTOS    8    4
                      NUMBER OF CONTRACTED GTOS   4    2
                      NUMBER OF CLOSED SHELLS     2    0
                      OPEN SHELL OCCUPATION       0    2

  ZNUC SCFIT  TOTAL HF ENERGY   KINETIC ENERGY   VIRIAL THEOREM ACCURACY
   6.0   9   -3.767634636E+01  3.767630973E+01 -2.000000972E+00  4.2E-06

 NUCLEAR CHARGE  1.0  SYMMETRY SPECIES            S
 N. ELECTRONS    1.0  NUMBER OF PRIMITIVE GTOS    4
                      NUMBER OF CONTRACTED GTOS   2
                      NUMBER OF CLOSED SHELLS     0
                      OPEN SHELL OCCUPATION       1

  ZNUC SCFIT  TOTAL HF ENERGY   KINETIC ENERGY   VIRIAL THEOREM ACCURACY
   1.0   1   -4.977266687E-01  5.190767460E-01 -1.958869132E+00  2.2E-17

 AAAAAAAAAAAAAAAAAAAAAAAAAAAAAAAAAAAAAAAAAAAAAAAAAAAAAAAAAAAAAAAAAAAAAAAAAAAAAAA

 TTTTTTTTTTTTTTTTTTTTTTTTTTTTTT MOQGAD      TELAPSE        9.21 TCPU        6.14
 TTTTTTTTTTTTTTTTTTTTTTTTTTTTTT SHELLXN     TELAPSE       11.17 TCPU        8.11
 TTTTTTTTTTTTTTTTTTTTTTTTTTTTTT MONMO3      TELAPSE       12.05 TCPU        8.98
 NUMERICALLY INTEGRATED DENSITY    319.9998860149
 TTTTTTTTTTTTTTTTTTTTTTTTTTTTTT NUMDFT      TELAPSE       12.27 TCPU        9.20
 CYC   0 ETOT(AU) -2.070660525971E+03 DETOT -2.07E+03 tst  0.00E+00 PX  1.00E+00
 TTTTTTTTTTTTTTTTTTTTTTTTTTTTTT DIIS        TELAPSE       12.30 TCPU        9.23
 TTTTTTTTTTTTTTTTTTTTTTTTTTTTTT FDIK        TELAPSE       12.88 TCPU        9.81
 INSULATING STATE
 TOP OF VALENCE BANDS -    BAND    160; K    1; EIG -2.8203060E-01 AU
 BOTTOM OF VIRTUAL BANDS - BAND    161; K    7; EIG -1.2511363E-01 AU
 INDIRECT ENERGY BAND GAP:   4.2699 eV
 BOTTOM OF VIRTUAL BANDS - BAND    161; K    1; EIG -1.1997143E-01 AU
 TTTTTTTTTTTTTTTTTTTTTTTTTTTTTT PDIG        TELAPSE       13.22 TCPU       10.15
 TTTTTTTTTTTTTTTTTTTTTTTTTTTTTT MOQGAD      TELAPSE       13.23 TCPU       10.16
 TTTTTTTTTTTTTTTTTTTTTTTTTTTTTT SHELLXN     TELAPSE       15.28 TCPU       12.21
 TTTTTTTTTTTTTTTTTTTTTTTTTTTTTT MONMO3      TELAPSE       16.17 TCPU       13.10
 NUMERICALLY INTEGRATED DENSITY    319.9999011450
 TTTTTTTTTTTTTTTTTTTTTTTTTTTTTT NUMDFT      TELAPSE       16.42 TCPU       13.35
 CYC   1 ETOT(AU) -2.057245103226E+03 DETOT  1.34E+01 tst  0.00E+00 PX  1.00E+00
 TTTTTTTTTTTTTTTTTTTTTTTTTTTTTT DIIS        TELAPSE       16.45 TCPU       13.38
 DIIS TEST: 0.17599E+01 AT SCF   CYCLE   1 - MIX   50 %
 TTTTTTTTTTTTTTTTTTTTTTTTTTTTTT FDIK        TELAPSE       17.07 TCPU       13.96
 INSULATING STATE
 TOP OF VALENCE BANDS -    BAND    160; K   10; EIG -2.4965933E-01 AU
 TOP OF VALENCE BANDS -    BAND    160; K    1; EIG -2.4972728E-01 AU
 BOTTOM OF VIRTUAL BANDS - BAND    161; K    1; EIG -4.6938640E-02 AU
 INDIRECT ENERGY BAND GAP:   5.5163 eV
 TTTTTTTTTTTTTTTTTTTTTTTTTTTTTT PDIG        TELAPSE       17.41 TCPU       14.30
 TTTTTTTTTTTTTTTTTTTTTTTTTTTTTT MOQGAD      TELAPSE       17.41 TCPU       14.31
 TTTTTTTTTTTTTTTTTTTTTTTTTTTTTT SHELLXN     TELAPSE       19.47 TCPU       16.35
 TTTTTTTTTTTTTTTTTTTTTTTTTTTTTT MONMO3      TELAPSE       20.41 TCPU       17.29
 NUMERICALLY INTEGRATED DENSITY    319.9998965978
 TTTTTTTTTTTTTTTTTTTTTTTTTTTTTT NUMDFT      TELAPSE       20.90 TCPU       17.78
 CYC   2 ETOT(AU) -2.057710639047E+03 DETOT -4.66E-01 tst  9.73E-04 PX  1.28E-01
 TTTTTTTTTTTTTTTTTTTTTTTTTTTTTT DIIS        TELAPSE       20.93 TCPU       17.81
 DIIS TEST: 0.14279E+00 AT SCF   CYCLE   2 - DIIS ACTIVE - HISTORY:     2 CYCLES
 TTTTTTTTTTTTTTTTTTTTTTTTTTTTTT FDIK        TELAPSE       21.55 TCPU       18.40
 INSULATING STATE
 TOP OF VALENCE BANDS -    BAND    160; K   10; EIG -2.4111246E-01 AU
 TOP OF VALENCE BANDS -    BAND    160; K    1; EIG -2.4116934E-01 AU
 BOTTOM OF VIRTUAL BANDS - BAND    161; K    7; EIG -5.1117319E-03 AU
 INDIRECT ENERGY BAND GAP:   6.4219 eV
 BOTTOM OF VIRTUAL BANDS - BAND    161; K    1; EIG -1.8264341E-03 AU
 TTTTTTTTTTTTTTTTTTTTTTTTTTTTTT PDIG        TELAPSE       21.89 TCPU       18.75
 TTTTTTTTTTTTTTTTTTTTTTTTTTTTTT MOQGAD      TELAPSE       21.89 TCPU       18.75
 TTTTTTTTTTTTTTTTTTTTTTTTTTTTTT SHELLXN     TELAPSE       23.95 TCPU       20.81
 TTTTTTTTTTTTTTTTTTTTTTTTTTTTTT MONMO3      TELAPSE       24.85 TCPU       21.71
 NUMERICALLY INTEGRATED DENSITY    319.9998911927
 TTTTTTTTTTTTTTTTTTTTTTTTTTTTTT NUMDFT      TELAPSE       25.10 TCPU       21.95
 CYC   3 ETOT(AU) -2.057732803596E+03 DETOT -2.22E-02 tst  2.07E-04 PX  4.26E-02
 TTTTTTTTTTTTTTTTTTTTTTTTTTTTTT DIIS        TELAPSE       25.13 TCPU       21.98
 DIIS TEST: 0.79832E-01 AT SCF   CYCLE   3 - DIIS ACTIVE - HISTORY:     3 CYCLES
 TTTTTTTTTTTTTTTTTTTTTTTTTTTTTT FDIK        TELAPSE       25.71 TCPU       22.56
 INSULATING STATE
 TOP OF VALENCE BANDS -    BAND    160; K   10; EIG -2.5129033E-01 AU
 TOP OF VALENCE BANDS -    BAND    160; K    1; EIG -2.5141253E-01 AU
 BOTTOM OF VIRTUAL BANDS - BAND    161; K    7; EIG -1.1989022E-02 AU
 INDIRECT ENERGY BAND GAP:   6.5117 eV
 BOTTOM OF VIRTUAL BANDS - BAND    161; K    1; EIG -7.6236100E-03 AU
 TTTTTTTTTTTTTTTTTTTTTTTTTTTTTT PDIG        TELAPSE       26.05 TCPU       22.90
 TTTTTTTTTTTTTTTTTTTTTTTTTTTTTT MOQGAD      TELAPSE       26.06 TCPU       22.91
 TTTTTTTTTTTTTTTTTTTTTTTTTTTTTT SHELLXN     TELAPSE       28.11 TCPU       24.96
 TTTTTTTTTTTTTTTTTTTTTTTTTTTTTT MONMO3      TELAPSE       29.01 TCPU       25.86
 NUMERICALLY INTEGRATED DENSITY    319.9998938214
 TTTTTTTTTTTTTTTTTTTTTTTTTTTTTT NUMDFT      TELAPSE       29.25 TCPU       26.10
 CYC   4 ETOT(AU) -2.057750944467E+03 DETOT -1.81E-02 tst  1.18E-04 PX  3.23E-02
 TTTTTTTTTTTTTTTTTTTTTTTTTTTTTT DIIS        TELAPSE       29.29 TCPU       26.13
 DIIS TEST: 0.90311E-02 AT SCF   CYCLE   4 - DIIS ACTIVE - HISTORY:     4 CYCLES
 TTTTTTTTTTTTTTTTTTTTTTTTTTTTTT FDIK        TELAPSE       29.87 TCPU       26.71
 INSULATING STATE
 TOP OF VALENCE BANDS -    BAND    160; K   10; EIG -2.4895756E-01 AU
 TOP OF VALENCE BANDS -    BAND    160; K    1; EIG -2.4906746E-01 AU
 BOTTOM OF VIRTUAL BANDS - BAND    161; K    7; EIG -9.9575015E-03 AU
 INDIRECT ENERGY BAND GAP:   6.5035 eV
 BOTTOM OF VIRTUAL BANDS - BAND    161; K    1; EIG -6.3216200E-03 AU
 TTTTTTTTTTTTTTTTTTTTTTTTTTTTTT PDIG        TELAPSE       30.21 TCPU       27.05
 TTTTTTTTTTTTTTTTTTTTTTTTTTTTTT MOQGAD      TELAPSE       30.21 TCPU       27.05
 TTTTTTTTTTTTTTTTTTTTTTTTTTTTTT SHELLXN     TELAPSE       32.27 TCPU       29.11
 TTTTTTTTTTTTTTTTTTTTTTTTTTTTTT MONMO3      TELAPSE       33.17 TCPU       30.01
 NUMERICALLY INTEGRATED DENSITY    319.9998931839
 TTTTTTTTTTTTTTTTTTTTTTTTTTTTTT NUMDFT      TELAPSE       33.41 TCPU       30.25
 CYC   5 ETOT(AU) -2.057753082350E+03 DETOT -2.14E-03 tst  9.38E-06 PX  8.05E-03
 TTTTTTTTTTTTTTTTTTTTTTTTTTTTTT DIIS        TELAPSE       33.44 TCPU       30.28
 DIIS TEST: 0.81716E-03 AT SCF   CYCLE   5 - DIIS ACTIVE - HISTORY:     5 CYCLES
 TTTTTTTTTTTTTTTTTTTTTTTTTTTTTT FDIK        TELAPSE       34.02 TCPU       30.85
 INSULATING STATE
 TOP OF VALENCE BANDS -    BAND    160; K   10; EIG -2.4864031E-01 AU
 TOP OF VALENCE BANDS -    BAND    160; K    1; EIG -2.4875370E-01 AU
 BOTTOM OF VIRTUAL BANDS - BAND    161; K    7; EIG -9.6589783E-03 AU
 INDIRECT ENERGY BAND GAP:   6.5030 eV
 BOTTOM OF VIRTUAL BANDS - BAND    161; K    1; EIG -5.6622957E-03 AU
 TTTTTTTTTTTTTTTTTTTTTTTTTTTTTT PDIG        TELAPSE       34.36 TCPU       31.19
 TTTTTTTTTTTTTTTTTTTTTTTTTTTTTT MOQGAD      TELAPSE       34.36 TCPU       31.20
 TTTTTTTTTTTTTTTTTTTTTTTTTTTTTT SHELLXN     TELAPSE       36.40 TCPU       33.23
 TTTTTTTTTTTTTTTTTTTTTTTTTTTTTT MONMO3      TELAPSE       37.61 TCPU       34.44
 NUMERICALLY INTEGRATED DENSITY    319.9998930899
 TTTTTTTTTTTTTTTTTTTTTTTTTTTTTT NUMDFT      TELAPSE       37.86 TCPU       34.69
 CYC   6 ETOT(AU) -2.057753267540E+03 DETOT -1.85E-04 tst  1.40E-06 PX  1.74E-03
 TTTTTTTTTTTTTTTTTTTTTTTTTTTTTT DIIS        TELAPSE       38.58 TCPU       35.42
 DIIS TEST: 0.48516E-04 AT SCF   CYCLE   6 - DIIS ACTIVE - HISTORY:     6 CYCLES
 TTTTTTTTTTTTTTTTTTTTTTTTTTTTTT FDIK        TELAPSE       39.16 TCPU       35.99
 INSULATING STATE
 TOP OF VALENCE BANDS -    BAND    160; K   10; EIG -2.4856846E-01 AU
 TOP OF VALENCE BANDS -    BAND    160; K    1; EIG -2.4867693E-01 AU
 BOTTOM OF VIRTUAL BANDS - BAND    161; K    7; EIG -9.6410507E-03 AU
 INDIRECT ENERGY BAND GAP:   6.5015 eV
 BOTTOM OF VIRTUAL BANDS - BAND    161; K    1; EIG -5.5533375E-03 AU
 TTTTTTTTTTTTTTTTTTTTTTTTTTTTTT PDIG        TELAPSE       39.51 TCPU       36.33
 TTTTTTTTTTTTTTTTTTTTTTTTTTTTTT MOQGAD      TELAPSE       39.51 TCPU       36.34
 TTTTTTTTTTTTTTTTTTTTTTTTTTTTTT SHELLXN     TELAPSE       41.58 TCPU       38.38
 TTTTTTTTTTTTTTTTTTTTTTTTTTTTTT MONMO3      TELAPSE       42.46 TCPU       39.26
 NUMERICALLY INTEGRATED DENSITY    319.9998930634
 TTTTTTTTTTTTTTTTTTTTTTTTTTTTTT NUMDFT      TELAPSE       42.95 TCPU       39.75
 CYC   7 ETOT(AU) -2.057753277794E+03 DETOT -1.03E-05 tst  2.15E-07 PX  4.97E-04
 TTTTTTTTTTTTTTTTTTTTTTTTTTTTTT DIIS        TELAPSE       43.03 TCPU       39.83
 DIIS TEST: 0.78516E-05 AT SCF   CYCLE   7 - DIIS ACTIVE - HISTORY:     7 CYCLES
 TTTTTTTTTTTTTTTTTTTTTTTTTTTTTT FDIK        TELAPSE       43.61 TCPU       40.41
 INSULATING STATE
 TOP OF VALENCE BANDS -    BAND    160; K   10; EIG -2.4860494E-01 AU
 TOP OF VALENCE BANDS -    BAND    160; K    1; EIG -2.4871563E-01 AU
 BOTTOM OF VIRTUAL BANDS - BAND    161; K    7; EIG -9.6462918E-03 AU
 INDIRECT ENERGY BAND GAP:   6.5024 eV
 BOTTOM OF VIRTUAL BANDS - BAND    161; K    1; EIG -5.6027511E-03 AU
 TTTTTTTTTTTTTTTTTTTTTTTTTTTTTT PDIG        TELAPSE       43.95 TCPU       40.75
 TTTTTTTTTTTTTTTTTTTTTTTTTTTTTT MOQGAD      TELAPSE       43.96 TCPU       40.75
 TTTTTTTTTTTTTTTTTTTTTTTTTTTTTT SHELLXN     TELAPSE       46.01 TCPU       42.81
 TTTTTTTTTTTTTTTTTTTTTTTTTTTTTT MONMO3      TELAPSE       46.91 TCPU       43.71
 NUMERICALLY INTEGRATED DENSITY    319.9998930615
 TTTTTTTTTTTTTTTTTTTTTTTTTTTTTT NUMDFT      TELAPSE       47.40 TCPU       44.19
 CYC   8 ETOT(AU) -2.057753280257E+03 DETOT -2.46E-06 tst  1.54E-08 PX  1.84E-04
 TTTTTTTTTTTTTTTTTTTTTTTTTTTTTT DIIS        TELAPSE       47.44 TCPU       44.23
 DIIS TEST: 0.29434E-06 AT SCF   CYCLE   8 - DIIS ACTIVE - HISTORY:     8 CYCLES
 TTTTTTTTTTTTTTTTTTTTTTTTTTTTTT FDIK        TELAPSE       48.01 TCPU       44.80
 INSULATING STATE
 TOP OF VALENCE BANDS -    BAND    160; K   10; EIG -2.4861457E-01 AU
 TOP OF VALENCE BANDS -    BAND    160; K    1; EIG -2.4872455E-01 AU
 BOTTOM OF VIRTUAL BANDS - BAND    161; K    7; EIG -9.6514935E-03 AU
 INDIRECT ENERGY BAND GAP:   6.5025 eV
 BOTTOM OF VIRTUAL BANDS - BAND    161; K    1; EIG -5.6064906E-03 AU
 TTTTTTTTTTTTTTTTTTTTTTTTTTTTTT PDIG        TELAPSE       48.36 TCPU       45.15
 TTTTTTTTTTTTTTTTTTTTTTTTTTTTTT MOQGAD      TELAPSE       48.36 TCPU       45.15
 TTTTTTTTTTTTTTTTTTTTTTTTTTTTTT SHELLXN     TELAPSE       50.42 TCPU       47.21
 TTTTTTTTTTTTTTTTTTTTTTTTTTTTTT MONMO3      TELAPSE       51.32 TCPU       48.10
 NUMERICALLY INTEGRATED DENSITY    319.9998930622
 TTTTTTTTTTTTTTTTTTTTTTTTTTTTTT NUMDFT      TELAPSE       51.80 TCPU       48.59
 CYC   9 ETOT(AU) -2.057753280514E+03 DETOT -2.57E-07 tst  1.41E-09 PX  5.10E-05
 TTTTTTTTTTTTTTTTTTTTTTTTTTTTTT DIIS        TELAPSE       51.96 TCPU       48.75
 DIIS TEST: 0.71301E-07 AT SCF   CYCLE   9 - DIIS ACTIVE - HISTORY:     9 CYCLES
 TTTTTTTTTTTTTTTTTTTTTTTTTTTTTT FDIK        TELAPSE       52.54 TCPU       49.33
 INSULATING STATE
 TOP OF VALENCE BANDS -    BAND    160; K   10; EIG -2.4861320E-01 AU
 TOP OF VALENCE BANDS -    BAND    160; K    1; EIG -2.4872349E-01 AU
 BOTTOM OF VIRTUAL BANDS - BAND    161; K    7; EIG -9.6564458E-03 AU
 INDIRECT ENERGY BAND GAP:   6.5023 eV
 BOTTOM OF VIRTUAL BANDS - BAND    161; K    1; EIG -5.6040402E-03 AU
 TTTTTTTTTTTTTTTTTTTTTTTTTTTTTT PDIG        TELAPSE       52.88 TCPU       49.67
 TTTTTTTTTTTTTTTTTTTTTTTTTTTTTT MOQGAD      TELAPSE       52.89 TCPU       49.67
 TTTTTTTTTTTTTTTTTTTTTTTTTTTTTT SHELLXN     TELAPSE       54.95 TCPU       51.72
 TTTTTTTTTTTTTTTTTTTTTTTTTTTTTT MONMO3      TELAPSE       55.87 TCPU       52.64
 NUMERICALLY INTEGRATED DENSITY    319.9998930616
 TTTTTTTTTTTTTTTTTTTTTTTTTTTTTT NUMDFT      TELAPSE       56.35 TCPU       53.13
 CYC  10 ETOT(AU) -2.057753280538E+03 DETOT -2.46E-08 tst  1.03E-10 PX  2.57E-05
 TTTTTTTTTTTTTTTTTTTTTTTTTTTTTT DIIS        TELAPSE       56.40 TCPU       53.17
 DIIS TEST: 0.53226E-08 AT SCF   CYCLE  10 - DIIS ACTIVE - HISTORY:    10 CYCLES
 TTTTTTTTTTTTTTTTTTTTTTTTTTTTTT FDIK        TELAPSE       56.98 TCPU       53.75
 INSULATING STATE
 TOP OF VALENCE BANDS -    BAND    160; K   10; EIG -2.4861309E-01 AU
 TOP OF VALENCE BANDS -    BAND    160; K    1; EIG -2.4872334E-01 AU
 BOTTOM OF VIRTUAL BANDS - BAND    161; K    7; EIG -9.6543748E-03 AU
 INDIRECT ENERGY BAND GAP:   6.5024 eV
 BOTTOM OF VIRTUAL BANDS - BAND    161; K    1; EIG -5.6037768E-03 AU
 TTTTTTTTTTTTTTTTTTTTTTTTTTTTTT PDIG        TELAPSE       57.32 TCPU       54.09
 TTTTTTTTTTTTTTTTTTTTTTTTTTTTTT MOQGAD      TELAPSE       57.32 TCPU       54.09
 TTTTTTTTTTTTTTTTTTTTTTTTTTTTTT SHELLXN     TELAPSE       59.37 TCPU       56.15
 TTTTTTTTTTTTTTTTTTTTTTTTTTTTTT MONMO3      TELAPSE       60.28 TCPU       57.05
 NUMERICALLY INTEGRATED DENSITY    319.9998930614
 TTTTTTTTTTTTTTTTTTTTTTTTTTTTTT NUMDFT      TELAPSE       60.76 TCPU       57.53
 CYC  11 ETOT(AU) -2.057753280555E+03 DETOT -1.68E-08 tst  1.12E-11 PX  5.77E-06
 TTTTTTTTTTTTTTTTTTTTTTTTTTTTTT DIIS        TELAPSE       60.80 TCPU       57.57
 DIIS TEST: 0.42973E-09 AT SCF   CYCLE  11 - DIIS ACTIVE - HISTORY:    11 CYCLES
 TTTTTTTTTTTTTTTTTTTTTTTTTTTTTT FDIK        TELAPSE       61.38 TCPU       58.15
 INSULATING STATE
 TOP OF VALENCE BANDS -    BAND    160; K   10; EIG -2.4861268E-01 AU
 TOP OF VALENCE BANDS -    BAND    160; K    1; EIG -2.4872294E-01 AU
 BOTTOM OF VIRTUAL BANDS - BAND    161; K    7; EIG -9.6543746E-03 AU
 INDIRECT ENERGY BAND GAP:   6.5024 eV
 BOTTOM OF VIRTUAL BANDS - BAND    161; K    1; EIG -5.6035695E-03 AU
 TTTTTTTTTTTTTTTTTTTTTTTTTTTTTT PDIG        TELAPSE       61.73 TCPU       58.49
 TTTTTTTTTTTTTTTTTTTTTTTTTTTTTT MOQGAD      TELAPSE       61.73 TCPU       58.50
 TTTTTTTTTTTTTTTTTTTTTTTTTTTTTT SHELLXN     TELAPSE       63.78 TCPU       60.54
 TTTTTTTTTTTTTTTTTTTTTTTTTTTTTT MONMO3      TELAPSE       64.68 TCPU       61.45
 NUMERICALLY INTEGRATED DENSITY    319.9998930615
 TTTTTTTTTTTTTTTTTTTTTTTTTTTTTT NUMDFT      TELAPSE       65.17 TCPU       61.93
 CYC  12 ETOT(AU) -2.057753280553E+03 DETOT  1.95E-09 tst  1.03E-12 PX  1.57E-06
 TTTTTTTTTTTTTTTTTTTTTTTTTTTTTT DIIS        TELAPSE       65.21 TCPU       61.98
 DIIS TEST: 0.36239E-10 AT SCF   CYCLE  12 - DIIS ACTIVE - HISTORY:    12 CYCLES
 TTTTTTTTTTTTTTTTTTTTTTTTTTTTTT FDIK        TELAPSE       65.84 TCPU       62.61
 INSULATING STATE
 TOP OF VALENCE BANDS -    BAND    160; K   10; EIG -2.4861256E-01 AU
 TOP OF VALENCE BANDS -    BAND    160; K    1; EIG -2.4872283E-01 AU
 BOTTOM OF VIRTUAL BANDS - BAND    161; K    7; EIG -9.6542224E-03 AU
 INDIRECT ENERGY BAND GAP:   6.5024 eV
 BOTTOM OF VIRTUAL BANDS - BAND    161; K    1; EIG -5.6033926E-03 AU
 TTTTTTTTTTTTTTTTTTTTTTTTTTTTTT PDIG        TELAPSE       66.18 TCPU       62.95
 TTTTTTTTTTTTTTTTTTTTTTTTTTTTTT MOQGAD      TELAPSE       66.19 TCPU       62.95
 TTTTTTTTTTTTTTTTTTTTTTTTTTTTTT SHELLXN     TELAPSE       68.28 TCPU       65.00
 TTTTTTTTTTTTTTTTTTTTTTTTTTTTTT MONMO3      TELAPSE       69.14 TCPU       65.86
 NUMERICALLY INTEGRATED DENSITY    319.9998930615
 TTTTTTTTTTTTTTTTTTTTTTTTTTTTTT NUMDFT      TELAPSE       69.63 TCPU       66.35
 CYC  13 ETOT(AU) -2.057753280553E+03 DETOT -4.46E-11 tst  1.39E-13 PX  4.50E-07
 TTTTTTTTTTTTTTTTTTTTTTTTTTTTTT DIIS        TELAPSE       69.86 TCPU       66.58
 DIIS TEST: 0.20090E-11 AT SCF   CYCLE  13 - DIIS ACTIVE - HISTORY:    13 CYCLES
 TTTTTTTTTTTTTTTTTTTTTTTTTTTTTT FDIK        TELAPSE       70.44 TCPU       67.16
 INSULATING STATE
 TOP OF VALENCE BANDS -    BAND    160; K   10; EIG -2.4861252E-01 AU
[...]
Note: The following floating-point exceptions are signalling: IEEE_UNDERFLOW_FLAG IEEE_DENORMAL
Note: The following floating-point exceptions are signalling: IEEE_UNDERFLOW_FLAG IEEE_DENORMAL
Note: The following floating-point exceptions are signalling: IEEE_UNDERFLOW_FLAG IEEE_DENORMAL
Note: The following floating-point exceptions are signalling: IEEE_UNDERFLOW_FLAG IEEE_DENORMAL
Note: The following floating-point exceptions are signalling: IEEE_UNDERFLOW_FLAG IEEE_DENORMAL
Note: The following floating-point exceptions are signalling: IEEE_UNDERFLOW_FLAG IEEE_DENORMAL
Note: The following floating-point exceptions are signalling: IEEE_UNDERFLOW_FLAG IEEE_DENORMAL
Note: The following floating-point exceptions are signalling: IEEE_UNDERFLOW_FLAG IEEE_DENORMAL
Note: The following floating-point exceptions are signalling: IEEE_UNDERFLOW_FLAG IEEE_DENORMAL
Note: The following floating-point exceptions are signalling: IEEE_UNDERFLOW_FLAG IEEE_DENORMAL
Note: The following floating-point exceptions are signalling: IEEE_UNDERFLOW_FLAG IEEE_DENORMAL
Note: The following floating-point exceptions are signalling: IEEE_UNDERFLOW_FLAG IEEE_DENORMAL
Note: The following floating-point exceptions are signalling: IEEE_UNDERFLOW_FLAG IEEE_DENORMAL
Note: The following floating-point exceptions are signalling: IEEE_UNDERFLOW_FLAG IEEE_DENORMAL
Note: The following floating-point exceptions are signalling: IEEE_UNDERFLOW_FLAG IEEE_DENORMAL
Note: The following floating-point exceptions are signalling: IEEE_UNDERFLOW_FLAG IEEE_DENORMAL
Note: The following floating-point exceptions are signalling: IEEE_UNDERFLOW_FLAG IEEE_DENORMAL
Note: The following floating-point exceptions are signalling: IEEE_UNDERFLOW_FLAG IEEE_DENORMAL
Note: The following floating-point exceptions are signalling: IEEE_UNDERFLOW_FLAG IEEE_DENORMAL
Note: The following floating-point exceptions are signalling: IEEE_UNDERFLOW_FLAG IEEE_DENORMAL
Note: The following floating-point exceptions are signalling: IEEE_UNDERFLOW_FLAG IEEE_DENORMAL
Note: The following floating-point exceptions are signalling: IEEE_UNDERFLOW_FLAG IEEE_DENORMAL
Note: The following floating-point exceptions are signalling: IEEE_UNDERFLOW_FLAG IEEE_DENORMAL
Note: The following floating-point exceptions are signalling: IEEE_UNDERFLOW_FLAG IEEE_DENORMAL
Note: The following floating-point exceptions are signalling: IEEE_UNDERFLOW_FLAG IEEE_DENORMAL
Note: The following floating-point exceptions are signalling: IEEE_UNDERFLOW_FLAG IEEE_DENORMAL
Note: The following floating-point exceptions are signalling: IEEE_UNDERFLOW_FLAG IEEE_DENORMAL
Note: The following floating-point exceptions are signalling: IEEE_UNDERFLOW_FLAG IEEE_DENORMAL
Note: The following floating-point exceptions are signalling: IEEE_UNDERFLOW_FLAG IEEE_DENORMAL
Note: The following floating-point exceptions are signalling: IEEE_UNDERFLOW_FLAG IEEE_DENORMAL
Note: The following floating-point exceptions are signalling: IEEE_UNDERFLOW_FLAG IEEE_DENORMAL
Note: The following floating-point exceptions are signalling: IEEE_UNDERFLOW_FLAG IEEE_DENORMAL
Note: The following floating-point exceptions are signalling: IEEE_UNDERFLOW_FLAG IEEE_DENORMAL
Note: The following floating-point exceptions are signalling: IEEE_UNDERFLOW_FLAG IEEE_DENORMAL
Note: The following floating-point exceptions are signalling: IEEE_UNDERFLOW_FLAG IEEE_DENORMAL
Note: The following floating-point exceptions are signalling: IEEE_UNDERFLOW_FLAG IEEE_DENORMAL
Note: The following floating-point exceptions are signalling: IEEE_UNDERFLOW_FLAG IEEE_DENORMAL
Note: The following floating-point exceptions are signalling: IEEE_UNDERFLOW_FLAG IEEE_DENORMAL
Note: The following floating-point exceptions are signalling: IEEE_UNDERFLOW_FLAG IEEE_DENORMAL
Note: The following floating-point exceptions are signalling: IEEE_UNDERFLOW_FLAG IEEE_DENORMAL
Note: The following floating-point exceptions are signalling: IEEE_UNDERFLOW_FLAG IEEE_DENORMAL
Note: The following floating-point exceptions are signalling: IEEE_UNDERFLOW_FLAG IEEE_DENORMAL
Note: The following floating-point exceptions are signalling: IEEE_UNDERFLOW_FLAG IEEE_DENORMAL
Note: The following floating-point exceptions are signalling: IEEE_UNDERFLOW_FLAG IEEE_DENORMAL
Note: The following floating-point exceptions are signalling: IEEE_UNDERFLOW_FLAG IEEE_DENORMAL
Note: The following floating-point exceptions are signalling: IEEE_UNDERFLOW_FLAG IEEE_DENORMAL
Note: The following floating-point exceptions are signalling: IEEE_UNDERFLOW_FLAG IEEE_DENORMAL
Note: The following floating-point exceptions are signalling: IEEE_UNDERFLOW_FLAG IEEE_DENORMAL
Note: The following floating-point exceptions are signalling: IEEE_UNDERFLOW_FLAG IEEE_DENORMAL
Note: The following floating-point exceptions are signalling: IEEE_UNDERFLOW_FLAG IEEE_DENORMAL
Note: The following floating-point exceptions are signalling: IEEE_UNDERFLOW_FLAG IEEE_DENORMAL
Note: The following floating-point exceptions are signalling: IEEE_UNDERFLOW_FLAG IEEE_DENORMAL
Note: The following floating-point exceptions are signalling: IEEE_UNDERFLOW_FLAG IEEE_DENORMAL
Note: The following floating-point exceptions are signalling: IEEE_UNDERFLOW_FLAG IEEE_DENORMAL
Note: The following floating-point exceptions are signalling: IEEE_UNDERFLOW_FLAG IEEE_DENORMAL
Note: The following floating-point exceptions are signalling: IEEE_UNDERFLOW_FLAG IEEE_DENORMAL
Note: The following floating-point exceptions are signalling: IEEE_UNDERFLOW_FLAG IEEE_DENORMAL
Note: The following floating-point exceptions are signalling: IEEE_UNDERFLOW_FLAG IEEE_DENORMAL
Note: The following floating-point exceptions are signalling: IEEE_UNDERFLOW_FLAG IEEE_DENORMAL
Note: The following floating-point exceptions are signalling: IEEE_UNDERFLOW_FLAG IEEE_DENORMAL
Note: The following floating-point exceptions are signalling: IEEE_UNDERFLOW_FLAG IEEE_DENORMAL
Note: The following floating-point exceptions are signalling: IEEE_UNDERFLOW_FLAG IEEE_DENORMAL
Note: The following floating-point exceptions are signalling: IEEE_UNDERFLOW_FLAG IEEE_DENORMAL
Note: The following floating-point exceptions are signalling: IEEE_UNDERFLOW_FLAG IEEE_DENORMAL
Note: The following floating-point exceptions are signalling: IEEE_UNDERFLOW_FLAG IEEE_DENORMAL
Note: The following floating-point exceptions are signalling: IEEE_UNDERFLOW_FLAG IEEE_DENORMAL
Note: The following floating-point exceptions are signalling: IEEE_UNDERFLOW_FLAG IEEE_DENORMAL
Note: The following floating-point exceptions are signalling: IEEE_UNDERFLOW_FLAG IEEE_DENORMAL
Note: The following floating-point exceptions are signalling: IEEE_UNDERFLOW_FLAG IEEE_DENORMAL
Note: The following floating-point exceptions are signalling: IEEE_UNDERFLOW_FLAG IEEE_DENORMAL
Note: The following floating-point exceptions are signalling: IEEE_UNDERFLOW_FLAG IEEE_DENORMAL
Note: The following floating-point exceptions are signalling: IEEE_UNDERFLOW_FLAG IEEE_DENORMAL
Note: The following floating-point exceptions are signalling: IEEE_UNDERFLOW_FLAG IEEE_DENORMAL
Note: The following floating-point exceptions are signalling: IEEE_UNDERFLOW_FLAG IEEE_DENORMAL
Note: The following floating-point exceptions are signalling: IEEE_UNDERFLOW_FLAG IEEE_DENORMAL
Note: The following floating-point exceptions are signalling: IEEE_UNDERFLOW_FLAG IEEE_DENORMAL
Note: The following floating-point exceptions are signalling: IEEE_UNDERFLOW_FLAG IEEE_DENORMAL
Note: The following floating-point exceptions are signalling: IEEE_UNDERFLOW_FLAG IEEE_DENORMAL
Note: The following floating-point exceptions are signalling: IEEE_UNDERFLOW_FLAG IEEE_DENORMAL
Note: The following floating-point exceptions are signalling: IEEE_UNDERFLOW_FLAG IEEE_DENORMAL
Note: The following floating-point exceptions are signalling: IEEE_UNDERFLOW_FLAG IEEE_DENORMAL
Note: The following floating-point exceptions are signalling: IEEE_UNDERFLOW_FLAG IEEE_DENORMAL
Note: The following floating-point exceptions are signalling: IEEE_UNDERFLOW_FLAG IEEE_DENORMAL
Note: The following floating-point exceptions are signalling: IEEE_UNDERFLOW_FLAG IEEE_DENORMAL
Note: The following floating-point exceptions are signalling: IEEE_UNDERFLOW_FLAG IEEE_DENORMAL
Note: The following floating-point exceptions are signalling: IEEE_UNDERFLOW_FLAG IEEE_DENORMAL
Note: The following floating-point exceptions are signalling: IEEE_UNDERFLOW_FLAG IEEE_DENORMAL
Note: The following floating-point exceptions are signalling: IEEE_UNDERFLOW_FLAG IEEE_DENORMAL
Note: The following floating-point exceptions are signalling: IEEE_UNDERFLOW_FLAG IEEE_DENORMAL
Note: The following floating-point exceptions are signalling: IEEE_UNDERFLOW_FLAG IEEE_DENORMAL
Note: The following floating-point exceptions are signalling: IEEE_UNDERFLOW_FLAG IEEE_DENORMAL
Note: The following floating-point exceptions are signalling: IEEE_UNDERFLOW_FLAG IEEE_DENORMAL
Note: The following floating-point exceptions are signalling: IEEE_UNDERFLOW_FLAG IEEE_DENORMAL
Note: The following floating-point exceptions are signalling: IEEE_UNDERFLOW_FLAG IEEE_DENORMAL
Note: The following floating-point exceptions are signalling: IEEE_UNDERFLOW_FLAG IEEE_DENORMAL
Note: The following floating-point exceptions are signalling: IEEE_UNDERFLOW_FLAG IEEE_DENORMAL
Note: The following floating-point exceptions are signalling: IEEE_UNDERFLOW_FLAG IEEE_DENORMAL
Note: The following floating-point exceptions are signalling: IEEE_UNDERFLOW_FLAG IEEE_DENORMAL
Note: The following floating-point exceptions are signalling: IEEE_UNDERFLOW_FLAG IEEE_DENORMAL
Note: The following floating-point exceptions are signalling: IEEE_UNDERFLOW_FLAG IEEE_DENORMAL
Note: The following floating-point exceptions are signalling: IEEE_UNDERFLOW_FLAG IEEE_DENORMAL
Note: The following floating-point exceptions are signalling: IEEE_UNDERFLOW_FLAG IEEE_DENORMAL
Note: The following floating-point exceptions are signalling: IEEE_UNDERFLOW_FLAG IEEE_DENORMAL
Note: The following floating-point exceptions are signalling: IEEE_UNDERFLOW_FLAG IEEE_DENORMAL
Note: The following floating-point exceptions are signalling: IEEE_UNDERFLOW_FLAG IEEE_DENORMAL
Note: The following floating-point exceptions are signalling: IEEE_UNDERFLOW_FLAG IEEE_DENORMAL
Note: The following floating-point exceptions are signalling: IEEE_UNDERFLOW_FLAG IEEE_DENORMAL
Note: The following floating-point exceptions are signalling: IEEE_UNDERFLOW_FLAG IEEE_DENORMAL
Note: The following floating-point exceptions are signalling: IEEE_UNDERFLOW_FLAG IEEE_DENORMAL
Note: The following floating-point exceptions are signalling: IEEE_UNDERFLOW_FLAG IEEE_DENORMAL
Note: The following floating-point exceptions are signalling: IEEE_UNDERFLOW_FLAG IEEE_DENORMAL
Note: The following floating-point exceptions are signalling: IEEE_UNDERFLOW_FLAG IEEE_DENORMAL
Note: The following floating-point exceptions are signalling: IEEE_UNDERFLOW_FLAG IEEE_DENORMAL
Note: The following floating-point exceptions are signalling: IEEE_UNDERFLOW_FLAG IEEE_DENORMAL
Note: The following floating-point exceptions are signalling: IEEE_UNDERFLOW_FLAG IEEE_DENORMAL
Note: The following floating-point exceptions are signalling: IEEE_UNDERFLOW_FLAG IEEE_DENORMAL
Note: The following floating-point exceptions are signalling: IEEE_UNDERFLOW_FLAG IEEE_DENORMAL
Note: The following floating-point exceptions are signalling: IEEE_UNDERFLOW_FLAG IEEE_DENORMAL
Note: The following floating-point exceptions are signalling: IEEE_UNDERFLOW_FLAG IEEE_DENORMAL
Note: The following floating-point exceptions are signalling: IEEE_UNDERFLOW_FLAG IEEE_DENORMAL
Note: The following floating-point exceptions are signalling: IEEE_UNDERFLOW_FLAG IEEE_DENORMAL
Note: The following floating-point exceptions are signalling: IEEE_UNDERFLOW_FLAG IEEE_DENORMAL
Note: The following floating-point exceptions are signalling: IEEE_UNDERFLOW_FLAG IEEE_DENORMAL
Note: The following floating-point exceptions are signalling: IEEE_UNDERFLOW_FLAG IEEE_DENORMAL
Note: The following floating-point exceptions are signalling: IEEE_UNDERFLOW_FLAG IEEE_DENORMAL
Note: The following floating-point exceptions are signalling: IEEE_UNDERFLOW_FLAG IEEE_DENORMAL
Note: The following floating-point exceptions are signalling: IEEE_UNDERFLOW_FLAG IEEE_DENORMAL
Note: The following floating-point exceptions are signalling: IEEE_UNDERFLOW_FLAG IEEE_DENORMAL
Note: The following floating-point exceptions are signalling: IEEE_UNDERFLOW_FLAG IEEE_DENORMAL
Note: The following floating-point exceptions are signalling: IEEE_UNDERFLOW_FLAG IEEE_DENORMAL
Note: The following floating-point exceptions are signalling: IEEE_UNDERFLOW_FLAG IEEE_DENORMAL
Note: The following floating-point exceptions are signalling: IEEE_UNDERFLOW_FLAG IEEE_DENORMAL
Note: The following floating-point exceptions are signalling: IEEE_UNDERFLOW_FLAG IEEE_DENORMAL
Note: The following floating-point exceptions are signalling: IEEE_UNDERFLOW_FLAG IEEE_DENORMAL
Note: The following floating-point exceptions are signalling: IEEE_UNDERFLOW_FLAG IEEE_DENORMAL
Note: The following floating-point exceptions are signalling: IEEE_UNDERFLOW_FLAG IEEE_DENORMAL
Note: The following floating-point exceptions are signalling: IEEE_UNDERFLOW_FLAG IEEE_DENORMAL
Note: The following floating-point exceptions are signalling: IEEE_UNDERFLOW_FLAG IEEE_DENORMAL
Note: The following floating-point exceptions are signalling: IEEE_UNDERFLOW_FLAG IEEE_DENORMAL
Note: The following floating-point exceptions are signalling: IEEE_UNDERFLOW_FLAG IEEE_DENORMAL
Note: The following floating-point exceptions are signalling: IEEE_UNDERFLOW_FLAG IEEE_DENORMAL
Note: The following floating-point exceptions are signalling: IEEE_UNDERFLOW_FLAG IEEE_DENORMAL
Note: The following floating-point exceptions are signalling: IEEE_UNDERFLOW_FLAG IEEE_DENORMAL
Note: The following floating-point exceptions are signalling: IEEE_UNDERFLOW_FLAG IEEE_DENORMAL
Note: The following floating-point exceptions are signalling: IEEE_UNDERFLOW_FLAG IEEE_DENORMAL
Note: The following floating-point exceptions are signalling: IEEE_UNDERFLOW_FLAG IEEE_DENORMAL
Note: The following floating-point exceptions are signalling: IEEE_UNDERFLOW_FLAG IEEE_DENORMAL
Note: The following floating-point exceptions are signalling: IEEE_UNDERFLOW_FLAG IEEE_DENORMAL
Note: The following floating-point exceptions are signalling: IEEE_UNDERFLOW_FLAG IEEE_DENORMAL
Note: The following floating-point exceptions are signalling: IEEE_UNDERFLOW_FLAG IEEE_DENORMAL
Note: The following floating-point exceptions are signalling: IEEE_UNDERFLOW_FLAG IEEE_DENORMAL
Note: The following floating-point exceptions are signalling: IEEE_UNDERFLOW_FLAG IEEE_DENORMAL
Note: The following floating-point exceptions are signalling: IEEE_UNDERFLOW_FLAG IEEE_DENORMAL
Note: The following floating-point exceptions are signalling: IEEE_UNDERFLOW_FLAG IEEE_DENORMAL
Note: The following floating-point exceptions are signalling: IEEE_UNDERFLOW_FLAG IEEE_DENORMAL
Note: The following floating-point exceptions are signalling: IEEE_UNDERFLOW_FLAG IEEE_DENORMAL
Note: The following floating-point exceptions are signalling: IEEE_UNDERFLOW_FLAG IEEE_DENORMAL
Note: The following floating-point exceptions are signalling: IEEE_UNDERFLOW_FLAG IEEE_DENORMAL
Note: The following floating-point exceptions are signalling: IEEE_UNDERFLOW_FLAG IEEE_DENORMAL
Note: The following floating-point exceptions are signalling: IEEE_UNDERFLOW_FLAG IEEE_DENORMAL
Note: The following floating-point exceptions are signalling: IEEE_UNDERFLOW_FLAG IEEE_DENORMAL
Note: The following floating-point exceptions are signalling: IEEE_UNDERFLOW_FLAG IEEE_DENORMAL
Note: The following floating-point exceptions are signalling: IEEE_UNDERFLOW_FLAG IEEE_DENORMAL
Note: The following floating-point exceptions are signalling: IEEE_UNDERFLOW_FLAG IEEE_DENORMAL
Note: The following floating-point exceptions are signalling: IEEE_UNDERFLOW_FLAG IEEE_DENORMAL
Note: The following floating-point exceptions are signalling: IEEE_UNDERFLOW_FLAG IEEE_DENORMAL
Note: The following floating-point exceptions are signalling: IEEE_UNDERFLOW_FLAG IEEE_DENORMAL
Note: The following floating-point exceptions are signalling: IEEE_UNDERFLOW_FLAG IEEE_DENORMAL
Note: The following floating-point exceptions are signalling: IEEE_UNDERFLOW_FLAG IEEE_DENORMAL
Note: The following floating-point exceptions are signalling: IEEE_UNDERFLOW_FLAG IEEE_DENORMAL
Note: The following floating-point exceptions are signalling: IEEE_UNDERFLOW_FLAG IEEE_DENORMAL
Note: The following floating-point exceptions are signalling: IEEE_UNDERFLOW_FLAG IEEE_DENORMAL
Note: The following floating-point exceptions are signalling: IEEE_UNDERFLOW_FLAG IEEE_DENORMAL
Note: The following floating-point exceptions are signalling: IEEE_UNDERFLOW_FLAG IEEE_DENORMAL
Note: The following floating-point exceptions are signalling: IEEE_UNDERFLOW_FLAG IEEE_DENORMAL
Note: The following floating-point exceptions are signalling: IEEE_UNDERFLOW_FLAG IEEE_DENORMAL
Note: The following floating-point exceptions are signalling: IEEE_UNDERFLOW_FLAG IEEE_DENORMAL
Note: The following floating-point exceptions are signalling: IEEE_UNDERFLOW_FLAG IEEE_DENORMAL
Note: The following floating-point exceptions are signalling: IEEE_UNDERFLOW_FLAG IEEE_DENORMAL
Note: The following floating-point exceptions are signalling: IEEE_UNDERFLOW_FLAG IEEE_DENORMAL
Note: The following floating-point exceptions are signalling: IEEE_UNDERFLOW_FLAG IEEE_DENORMAL
Note: The following floating-point exceptions are signalling: IEEE_UNDERFLOW_FLAG IEEE_DENORMAL
Note: The following floating-point exceptions are signalling: IEEE_UNDERFLOW_FLAG IEEE_DENORMAL
Note: The following floating-point exceptions are signalling: IEEE_UNDERFLOW_FLAG IEEE_DENORMAL
Note: The following floating-point exceptions are signalling: IEEE_UNDERFLOW_FLAG IEEE_DENORMAL
Note: The following floating-point exceptions are signalling: IEEE_UNDERFLOW_FLAG IEEE_DENORMAL
Note: The following floating-point exceptions are signalling: IEEE_UNDERFLOW_FLAG IEEE_DENORMAL
Note: The following floating-point exceptions are signalling: IEEE_UNDERFLOW_FLAG IEEE_DENORMAL
Note: The following floating-point exceptions are signalling: IEEE_UNDERFLOW_FLAG IEEE_DENORMAL
Note: The following floating-point exceptions are signalling: IEEE_UNDERFLOW_FLAG IEEE_DENORMAL
Note: The following floating-point exceptions are signalling: IEEE_UNDERFLOW_FLAG IEEE_DENORMAL
Note: The following floating-point exceptions are signalling: IEEE_UNDERFLOW_FLAG IEEE_DENORMAL
Note: The following floating-point exceptions are signalling: IEEE_UNDERFLOW_FLAG IEEE_DENORMAL
Note: The following floating-point exceptions are signalling: IEEE_UNDERFLOW_FLAG IEEE_DENORMAL
Note: The following floating-point exceptions are signalling: IEEE_UNDERFLOW_FLAG IEEE_DENORMAL
Note: The following floating-point exceptions are signalling: IEEE_UNDERFLOW_FLAG IEEE_DENORMAL
Note: The following floating-point exceptions are signalling: IEEE_UNDERFLOW_FLAG IEEE_DENORMAL
Note: The following floating-point exceptions are signalling: IEEE_UNDERFLOW_FLAG IEEE_DENORMAL
Note: The following floating-point exceptions are signalling: IEEE_UNDERFLOW_FLAG IEEE_DENORMAL
Note: The following floating-point exceptions are signalling: IEEE_UNDERFLOW_FLAG IEEE_DENORMAL
Note: The following floating-point exceptions are signalling: IEEE_UNDERFLOW_FLAG IEEE_DENORMAL
Note: The following floating-point exceptions are signalling: IEEE_UNDERFLOW_FLAG IEEE_DENORMAL
Note: The following floating-point exceptions are signalling: IEEE_UNDERFLOW_FLAG IEEE_DENORMAL
Note: The following floating-point exceptions are signalling: IEEE_UNDERFLOW_FLAG IEEE_DENORMAL
Note: The following floating-point exceptions are signalling: IEEE_UNDERFLOW_FLAG IEEE_DENORMAL
Note: The following floating-point exceptions are signalling: IEEE_UNDERFLOW_FLAG IEEE_DENORMAL
Note: The following floating-point exceptions are signalling: IEEE_UNDERFLOW_FLAG IEEE_DENORMAL
mv: cannot stat 'slurm-1204081.out': No such file or directory
