# Generated by CRYSTALpytools
 BEGIN_INFO
   Fermi Energy:    -6.585155
 END_INFO

 BEGIN_BLOCK_BANDGRID_3D
   Fermi_surfaces_of_fsurf_NaCl.bxsf
   BEGIN_BANDGRID_3D_UNKNOWN
     2
     24    24    24    
      0.000000    0.000000    0.000000   
     -1.116369    1.116369    1.116369   
      1.116369   -1.116369    1.116369   
      1.116369    1.116369   -1.116369   
   BAND:     1
       -1.156892   -1.060972   -0.855091   -0.547684   
       -0.185282    0.225283    0.719197    1.258363   
        1.762835    2.288233    2.949769    3.588665   
        3.775770    3.316605    2.536537    1.876797   
        1.404216    0.923473    0.381749   -0.096002   
       -0.457097   -0.759170   -1.008753   -1.146633   
       -1.060972   -1.008753   -0.839716   -0.587494   
       -0.253964    0.163078    0.634570    1.119558   
        1.624329    2.197945    2.829113    3.363599   
        3.577699    3.363599    2.829113    2.197945   
        1.624329    1.119558    0.634570    0.163078   
       -0.253964   -0.587494   -0.839716   -1.008753   
       -0.855091   -0.839716   -0.704067   -0.501669   
       -0.194997    0.174888    0.595358    1.074197   
        1.589771    2.109018    2.658416    3.248495   
        3.699034    3.710817    3.209801    2.482386   
        1.859109    1.386992    0.927582    0.442675   
        0.019892   -0.300876   -0.587494   -0.759170   
       -0.547684   -0.587494   -0.501669   -0.316414   
       -0.038939    0.282781    0.648556    1.104864   
        1.609336    2.066487    2.538224    3.171841   
        3.822982    4.036401    3.589699    2.816923   
        2.182925    1.753012    1.312296    0.803144   
        0.360360    0.019892   -0.253964   -0.457097   
       -0.185282   -0.253964   -0.194997   -0.038939   
        0.163976    0.474539    0.783035    1.196294   
        1.669364    2.080882    2.496155    3.116819   
        3.844642    4.199887    3.888317    3.197746   
        2.598225    2.179006    1.738155    1.221111   
        0.803144    0.442675    0.163078   -0.096002   
        0.225283    0.163078    0.174888    0.282781   
        0.474539    0.704639    0.978521    1.342283   
        1.760876    2.146162    2.544210    3.105717   
        3.774546    4.197547    4.099368    3.605699   
        3.045961    2.568673    2.115304    1.738155   
        1.312296    0.927582    0.634570    0.381749   
        0.719197    0.634570    0.595358    0.648556   
        0.783035    0.978521    1.217655    1.545090   
        1.896334    2.262273    2.666090    3.157337   
        3.707361    4.149954    4.279535    4.026469   
        3.518949    2.966204    2.568673    2.179006   
        1.753012    1.386992    1.119558    0.923473   
        1.258363    1.119558    1.074197    1.104864   
        1.196294    1.342283    1.545090    1.798999   
        2.098705    2.446195    2.835971    3.258890   
        3.714490    4.161573    4.454613    4.419973   
        4.043694    3.518949    3.045961    2.598225   
        2.182925    1.859109    1.624329    1.404216   
        1.762835    1.624329    1.589771    1.609336   
        1.669364    1.760876    1.896334    2.098705   
        2.377894    2.689192    3.027566    3.394865   
        3.810329    4.239207    4.566343    4.664004   
        4.419973    4.026469    3.605699    3.197746   
        2.816923    2.482386    2.197945    1.876797   
        2.288233    2.197945    2.109018    2.066487   
        2.080882    2.146162    2.262273    2.446195   
        2.689192    2.952544    3.234754    3.578461   
        3.972155    4.314964    4.525090    4.566343   
        4.454613    4.279535    4.099368    3.888317   
        3.589699    3.209801    2.829113    2.536537   
        2.949769    2.829113    2.658416    2.538224   
        2.496155    2.544210    2.666090    2.835971   
        3.027566    3.234754    3.506323    3.819472   
        4.132212    4.297712    4.314964    4.239207   
        4.161573    4.149954    4.197547    4.199887   
        4.036401    3.710817    3.363599    3.316605   
        3.588665    3.363599    3.248495    3.171841   
        3.116819    3.105717    3.157337    3.258890   
        3.394865    3.578461    3.819472    4.060293   
        4.185274    4.132212    3.972155    3.810329   
        3.714490    3.707361    3.774546    3.844642   
        3.822982    3.699034    3.577699    3.775770   
        3.775770    3.577699    3.699034    3.822982   
        3.844642    3.774546    3.707361    3.714490   
        3.810329    3.972155    4.132212    4.185274   
        4.060293    3.819472    3.578461    3.394865   
        3.258890    3.157337    3.105717    3.116819   
        3.171841    3.248495    3.363599    3.588665   
        3.316605    3.363599    3.710817    4.036401   
        4.199887    4.197547    4.149954    4.161573   
        4.239207    4.314964    4.297712    4.132212   
        3.819472    3.506323    3.234754    3.027566   
        2.835971    2.666090    2.544210    2.496155   
        2.538224    2.658416    2.829113    2.949769   
        2.536537    2.829113    3.209801    3.589699   
        3.888317    4.099368    4.279535    4.454613   
        4.566343    4.525090    4.314964    3.972155   
        3.578461    3.234754    2.952544    2.689192   
        2.446195    2.262273    2.146162    2.080882   
        2.066487    2.109018    2.197945    2.288233   
        1.876797    2.197945    2.482386    2.816923   
        3.197746    3.605699    4.026469    4.419973   
        4.664004    4.566343    4.239207    3.810329   
        3.394865    3.027566    2.689192    2.377894   
        2.098705    1.896334    1.760876    1.669364   
        1.609336    1.589771    1.624329    1.762835   
        1.404216    1.624329    1.859109    2.182925   
        2.598225    3.045961    3.518949    4.043694   
        4.419973    4.454613    4.161573    3.714490   
        3.258890    2.835971    2.446195    2.098705   
        1.798999    1.545090    1.342283    1.196294   
        1.104864    1.074197    1.119558    1.258363   
        0.923473    1.119558    1.386992    1.753012   
        2.179006    2.568673    2.966204    3.518949   
        4.026469    4.279535    4.149954    3.707361   
        3.157337    2.666090    2.262273    1.896334   
        1.545090    1.217655    0.978521    0.783035   
        0.648556    0.595358    0.634570    0.719197   
        0.381749    0.634570    0.927582    1.312296   
        1.738155    2.115304    2.568673    3.045961   
        3.605699    4.099368    4.197547    3.774546   
        3.105717    2.544210    2.146162    1.760876   
        1.342283    0.978521    0.704639    0.474539   
        0.282781    0.174888    0.163078    0.225283   
       -0.096002    0.163078    0.442675    0.803144   
        1.221111    1.738155    2.179006    2.598225   
        3.197746    3.888317    4.199887    3.844642   
        3.116819    2.496155    2.080882    1.669364   
        1.196294    0.783035    0.474539    0.163976   
       -0.038939   -0.194997   -0.253964   -0.185282   
       -0.457097   -0.253964    0.019892    0.360360   
        0.803144    1.312296    1.753012    2.182925   
        2.816923    3.589699    4.036401    3.822982   
        3.171841    2.538224    2.066487    1.609336   
        1.104864    0.648556    0.282781   -0.038939   
       -0.316414   -0.501669   -0.587494   -0.547684   
       -0.759170   -0.587494   -0.300876    0.019892   
        0.442675    0.927582    1.386992    1.859109   
        2.482386    3.209801    3.710817    3.699034   
        3.248495    2.658416    2.109018    1.589771   
        1.074197    0.595358    0.174888   -0.194997   
       -0.501669   -0.704067   -0.839716   -0.855091   
       -1.008753   -0.839716   -0.587494   -0.253964   
        0.163078    0.634570    1.119558    1.624329   
        2.197945    2.829113    3.363599    3.577699   
        3.363599    2.829113    2.197945    1.624329   
        1.119558    0.634570    0.163078   -0.253964   
       -0.587494   -0.839716   -1.008753   -1.060972   
       -1.146633   -1.008753   -0.759170   -0.457097   
       -0.096002    0.381749    0.923473    1.404216   
        1.876797    2.536537    3.316605    3.775770   
        3.588665    2.949769    2.288233    1.762835   
        1.258363    0.719197    0.225283   -0.185282   
       -0.547684   -0.855091   -1.060972   -1.156892   
       -1.060972   -1.008753   -0.839716   -0.587494   
       -0.253964    0.163078    0.634570    1.119558   
        1.624329    2.197945    2.829113    3.363599   
        3.577699    3.363599    2.829113    2.197945   
        1.624329    1.119558    0.634570    0.163078   
       -0.253964   -0.587494   -0.839716   -1.008753   
       -1.008753   -0.984100   -0.855091   -0.632393   
       -0.321040    0.058368    0.490268    0.974086   
        1.495048    2.036636    2.616865    3.212195   
        3.631904    3.612366    3.113581    2.408970   
        1.794428    1.310473    0.836995    0.342863   
       -0.093036   -0.432198   -0.704067   -0.910112   
       -0.839716   -0.855091   -0.759170   -0.587494   
       -0.300876    0.019892    0.442675    0.927582   
        1.386992    1.859109    2.482386    3.209801   
        3.710817    3.699034    3.248495    2.658416   
        2.109018    1.589771    1.074197    0.595358   
        0.174888   -0.194997   -0.501669   -0.704067   
       -0.587494   -0.632393   -0.587494   -0.432198   
       -0.194997    0.117417    0.456661    0.916289   
        1.439782    1.882293    2.314737    2.970939   
        3.750573    4.119831    3.750573    2.970939   
        2.314737    1.882293    1.439782    0.916289   
        0.456661    0.117417   -0.194997   -0.432198   
       -0.253964   -0.321040   -0.300876   -0.194997   
       -0.008544    0.282781    0.579412    0.993950   
        1.473361    1.888470    2.297240    2.907836   
        3.658054    4.102280    3.919147    3.316850   
        2.722717    2.266382    1.804414    1.285820   
        0.818491    0.456661    0.174888   -0.093036   
        0.163078    0.058368    0.019892    0.117417   
        0.282781    0.501152    0.783035    1.136347   
        1.549226    1.952471    2.371935    2.906747   
        3.525861    3.982795    4.034523    3.690490   
        3.164194    2.636348    2.152094    1.700657   
        1.285820    0.916289    0.595358    0.342863   
        0.634570    0.490268    0.442675    0.456661   
        0.579412    0.783035    1.026250    1.342283   
        1.689065    2.070895    2.486767    2.945796   
        3.450132    3.926848    4.194309    4.081164   
        3.613318    3.022124    2.526060    2.152094   
        1.804414    1.439782    1.074197    0.836995   
        1.119558    0.974086    0.927582    0.916289   
        0.993950    1.136347    1.342283    1.592438   
        1.896334    2.234898    2.628484    3.030804   
        3.466050    3.960835    4.378013    4.454858   
        4.098606    3.527875    3.022124    2.636348   
        2.266382    1.882293    1.589771    1.310473   
        1.624329    1.495048    1.386992    1.439782   
        1.473361    1.549226    1.689065    1.896334   
        2.170679    2.446195    2.809222    3.173446   
        3.560719    4.030142    4.496899    4.715624   
        4.540546    4.098606    3.613318    3.164194   
        2.722717    2.314737    2.109018    1.794428   
        2.197945    2.036636    1.859109    1.882293   
        1.888470    1.952471    2.070895    2.234898   
        2.446195    2.712268    3.027566    3.357042   
        3.722137    4.128267    4.515185    4.745312   
        4.715624    4.454858    4.081164    3.690490   
        3.316850    2.970939    2.658416    2.408970   
        2.829113    2.616865    2.482386    2.314737   
        2.297240    2.371935    2.486767    2.628484   
        2.809222    3.027566    3.274482    3.578461   
        3.932834    4.244105    4.437470    4.515185   
        4.496899    4.378013    4.194309    4.034523   
        3.919147    3.750573    3.248495    3.113581   
        3.363599    3.212195    3.209801    2.970939   
        2.907836    2.906747    2.945796    3.030804   
        3.173446    3.357042    3.578461    3.853268   
        4.132212    4.275045    4.244105    4.128267   
        4.030142    3.960835    3.926848    3.982795   
        4.102280    4.119831    3.699034    3.612366   
        3.577699    3.631904    3.710817    3.750573   
        3.658054    3.525861    3.450132    3.466050   
        3.560719    3.722137    3.932834    4.132212   
        4.215098    4.132212    3.932834    3.722137   
        3.560719    3.466050    3.450132    3.525861   
        3.658054    3.750573    3.710817    3.631904   
        3.363599    3.612366    3.699034    4.119831   
        4.102280    3.982795    3.926848    3.960835   
        4.030142    4.128267    4.244105    4.275045   
        4.132212    3.853268    3.578461    3.357042   
        3.173446    3.030804    2.945796    2.906747   
        2.907836    2.970939    3.209801    3.212195   
        2.829113    3.113581    3.248495    3.750573   
        3.919147    4.034523    4.194309    4.378013   
        4.496899    4.515185    4.437470    4.244105   
        3.932834    3.578461    3.274482    3.027566   
        2.809222    2.628484    2.486767    2.371935   
        2.297240    2.314737    2.482386    2.616865   
        2.197945    2.408970    2.658416    2.970939   
        3.316850    3.690490    4.081164    4.454858   
        4.715624    4.745312    4.515185    4.128267   
        3.722137    3.357042    3.027566    2.712268   
        2.446195    2.234898    2.070895    1.952471   
        1.888470    1.882293    1.859109    2.036636   
        1.624329    1.794428    2.109018    2.314737   
        2.722717    3.164194    3.613318    4.098606   
        4.540546    4.715624    4.496899    4.030142   
        3.560719    3.173446    2.809222    2.446195   
        2.170679    1.896334    1.689065    1.549226   
        1.473361    1.439782    1.386992    1.495048   
        1.119558    1.310473    1.589771    1.882293   
        2.266382    2.636348    3.022124    3.527875   
        4.098606    4.454858    4.378013    3.960835   
        3.466050    3.030804    2.628484    2.234898   
        1.896334    1.592438    1.342283    1.136347   
        0.993950    0.916289    0.927582    0.974086   
        0.634570    0.836995    1.074197    1.439782   
        1.804414    2.152094    2.526060    3.022124   
        3.613318    4.081164    4.194309    3.926848   
        3.450132    2.945796    2.486767    2.070895   
        1.689065    1.342283    1.026250    0.783035   
        0.579412    0.456661    0.442675    0.490268   
        0.163078    0.342863    0.595358    0.916289   
        1.285820    1.700657    2.152094    2.636348   
        3.164194    3.690490    4.034523    3.982795   
        3.525861    2.906747    2.371935    1.952471   
        1.549226    1.136347    0.783035    0.501152   
        0.282781    0.117417    0.019892    0.058368   
       -0.253964   -0.093036    0.174888    0.456661   
        0.818491    1.285820    1.804414    2.266382   
        2.722717    3.316850    3.919147    4.102280   
        3.658054    2.907836    2.297240    1.888470   
        1.473361    0.993950    0.579412    0.282781   
       -0.008544   -0.194997   -0.300876   -0.321040   
       -0.587494   -0.432198   -0.194997    0.117417   
        0.456661    0.916289    1.439782    1.882293   
        2.314737    2.970939    3.750573    4.119831   
        3.750573    2.970939    2.314737    1.882293   
        1.439782    0.916289    0.456661    0.117417   
       -0.194997   -0.432198   -0.587494   -0.632393   
       -0.839716   -0.704067   -0.501669   -0.194997   
        0.174888    0.595358    1.074197    1.589771   
        2.109018    2.658416    3.248495    3.699034   
        3.710817    3.209801    2.482386    1.859109   
        1.386992    0.927582    0.442675    0.019892   
       -0.300876   -0.587494   -0.759170   -0.855091   
       -1.008753   -0.910112   -0.704067   -0.432198   
       -0.093036    0.342863    0.836995    1.310473   
        1.794428    2.408970    3.113581    3.612366   
        3.631904    3.212195    2.616865    2.036636   
        1.495048    0.974086    0.490268    0.058368   
       -0.321040   -0.632393   -0.855091   -0.984100   
       -0.855091   -0.839716   -0.704067   -0.501669   
       -0.194997    0.174888    0.595358    1.074197   
        1.589771    2.109018    2.658416    3.248495   
        3.699034    3.710817    3.209801    2.482386   
        1.859109    1.386992    0.927582    0.442675   
        0.019892   -0.300876   -0.587494   -0.759170   
       -0.839716   -0.855091   -0.759170   -0.587494   
       -0.300876    0.019892    0.442675    0.927582   
        1.386992    1.859109    2.482386    3.209801   
        3.710817    3.699034    3.248495    2.658416   
        2.109018    1.589771    1.074197    0.595358   
        0.174888   -0.194997   -0.501669   -0.704067   
       -0.704067   -0.759170   -0.701292   -0.547684   
       -0.321040   -0.019429    0.364769    0.808532   
        1.277030    1.779842    2.361078    2.995103   
        3.515983    3.705674    3.475602    2.945007   
        2.330247    1.772795    1.282962    0.819335   
        0.377531   -0.008544   -0.316414   -0.549099   
       -0.501669   -0.587494   -0.547684   -0.457097   
       -0.253964    0.019892    0.360360    0.803144   
        1.312296    1.753012    2.182925    2.816923   
        3.589699    4.036401    3.822982    3.171841   
        2.538224    2.066487    1.609336    1.104864   
        0.648556    0.282781   -0.038939   -0.316414   
       -0.194997   -0.300876   -0.321040   -0.253964   
       -0.093036    0.174888    0.456661    0.818491   
        1.285820    1.804414    2.266382    2.722717   
        3.316850    3.919147    4.102280    3.658054   
        2.907836    2.297240    1.888470    1.473361   
        0.993950    0.579412    0.282781   -0.008544   
        0.174888    0.019892   -0.019429    0.019892   
        0.174888    0.377531    0.648556    0.993950   
        1.391971    1.806101    2.243307    2.750853   
        3.319952    3.807227    4.003339    3.807227   
        3.319952    2.750853    2.243307    1.806101   
        1.391971    0.993950    0.648556    0.377531   
        0.595358    0.442675    0.364769    0.360360   
        0.456661    0.648556    0.885785    1.196294   
        1.549226    1.921342    2.347662    2.782718   
        3.252332    3.768260    4.168621    4.183397   
        3.747634    3.123786    2.611123    2.243769   
        1.806101    1.473361    1.104864    0.819335   
        1.074197    0.927582    0.808532    0.803144   
        0.818491    0.993950    1.196294    1.437006   
        1.760876    2.070895    2.470903    2.853957   
        3.263271    3.792097    4.319127    4.502668   
        4.174172    3.573535    3.048111    2.611123   
        2.243307    1.888470    1.609336    1.282962   
        1.589771    1.386992    1.277030    1.312296   
        1.285820    1.391971    1.549226    1.760876   
        2.023575    2.262273    2.628484    2.986069   
        3.357885    3.849187    4.391727    4.691488   
        4.543186    4.075096    3.573535    3.123786   
        2.750853    2.297240    2.066487    1.772795   
        2.109018    1.859109    1.779842    1.753012   
        1.804414    1.806101    1.921342    2.070895   
        2.262273    2.526251    2.835971    3.173446   
        3.516908    3.946141    4.423782    4.749448   
        4.750156    4.543186    4.174172    3.747634   
        3.319952    2.907836    2.538224    2.330247   
        2.658416    2.482386    2.361078    2.182925   
        2.266382    2.243307    2.347662    2.470903   
        2.628484    2.835971    3.076601    3.394865   
        3.722137    4.094171    4.459729    4.688658   
        4.749448    4.691488    4.502668    4.183397   
        3.807227    3.658054    3.171841    2.945007   
        3.248495    3.209801    2.995103    2.816923   
        2.722717    2.750853    2.782718    2.853957   
        2.986069    3.173446    3.394865    3.652203   
        3.972155    4.244105    4.441170    4.459729   
        4.423782    4.391727    4.319127    4.168621   
        4.003339    4.102280    3.822982    3.475602   
        3.699034    3.710817    3.515983    3.589699   
        3.316850    3.319952    3.252332    3.263271   
        3.357885    3.516908    3.722137    3.972155   
        4.195098    4.297712    4.244105    4.094171   
        3.946141    3.849187    3.792097    3.768260   
        3.807227    3.919147    4.036401    3.705674   
        3.710817    3.699034    3.705674    4.036401   
        3.919147    3.807227    3.768260    3.792097   
        3.849187    3.946141    4.094171    4.244105   
        4.297712    4.195098    3.972155    3.722137   
        3.516908    3.357885    3.263271    3.252332   
        3.319952    3.316850    3.589699    3.515983   
        3.209801    3.248495    3.475602    3.822982   
        4.102280    4.003339    4.168621    4.319127   
        4.391727    4.423782    4.459729    4.441170   
        4.244105    3.972155    3.652203    3.394865   
        3.173446    2.986069    2.853957    2.782718   
        2.750853    2.722717    2.816923    2.995103   
        2.482386    2.658416    2.945007    3.171841   
        3.658054    3.807227    4.183397    4.502668   
        4.691488    4.749448    4.688658    4.459729   
        4.094171    3.722137    3.394865    3.076601   
        2.835971    2.628484    2.470903    2.347662   
        2.243307    2.266382    2.182925    2.361078   
        1.859109    2.109018    2.330247    2.538224   
        2.907836    3.319952    3.747634    4.174172   
        4.543186    4.750156    4.749448    4.423782   
        3.946141    3.516908    3.173446    2.835971   
        2.526251    2.262273    2.070895    1.921342   
        1.806101    1.804414    1.753012    1.779842   
        1.386992    1.589771    1.772795    2.066487   
        2.297240    2.750853    3.123786    3.573535   
        4.075096    4.543186    4.691488    4.391727   
        3.849187    3.357885    2.986069    2.628484   
        2.262273    2.023575    1.760876    1.549226   
        1.391971    1.285820    1.312296    1.277030   
        0.927582    1.074197    1.282962    1.609336   
        1.888470    2.243307    2.611123    3.048111   
        3.573535    4.174172    4.502668    4.319127   
        3.792097    3.263271    2.853957    2.470903   
        2.070895    1.760876    1.437006    1.196294   
        0.993950    0.818491    0.803144    0.808532   
        0.442675    0.595358    0.819335    1.104864   
        1.473361    1.806101    2.243769    2.611123   
        3.123786    3.747634    4.183397    4.168621   
        3.768260    3.252332    2.782718    2.347662   
        1.921342    1.549226    1.196294    0.885785   
        0.648556    0.456661    0.360360    0.364769   
        0.019892    0.174888    0.377531    0.648556   
        0.993950    1.391971    1.806101    2.243307   
        2.750853    3.319952    3.807227    4.003339   
        3.807227    3.319952    2.750853    2.243307   
        1.806101    1.391971    0.993950    0.648556   
        0.377531    0.174888    0.019892   -0.019429   
       -0.300876   -0.194997   -0.008544    0.282781   
        0.579412    0.993950    1.473361    1.888470   
        2.297240    2.907836    3.658054    4.102280   
        3.919147    3.316850    2.722717    2.266382   
        1.804414    1.285820    0.818491    0.456661   
        0.174888   -0.093036   -0.253964   -0.321040   
       -0.587494   -0.501669   -0.316414   -0.038939   
        0.282781    0.648556    1.104864    1.609336   
        2.066487    2.538224    3.171841    3.822982   
        4.036401    3.589699    2.816923    2.182925   
        1.753012    1.312296    0.803144    0.360360   
        0.019892   -0.253964   -0.457097   -0.547684   
       -0.759170   -0.704067   -0.549099   -0.316414   
       -0.008544    0.377531    0.819335    1.282962   
        1.772795    2.330247    2.945007    3.475602   
        3.705674    3.515983    2.995103    2.361078   
        1.779842    1.277030    0.808532    0.364769   
       -0.019429   -0.321040   -0.547684   -0.701292   
       -0.547684   -0.587494   -0.501669   -0.316414   
       -0.038939    0.282781    0.648556    1.104864   
        1.609336    2.066487    2.538224    3.171841   
        3.822982    4.036401    3.589699    2.816923   
        2.182925    1.753012    1.312296    0.803144   
        0.360360    0.019892   -0.253964   -0.457097   
       -0.587494   -0.632393   -0.587494   -0.432198   
       -0.194997    0.117417    0.456661    0.916289   
        1.439782    1.882293    2.314737    2.970939   
        3.750573    4.119831    3.750573    2.970939   
        2.314737    1.882293    1.439782    0.916289   
        0.456661    0.117417   -0.194997   -0.432198   
       -0.501669   -0.587494   -0.547684   -0.457097   
       -0.253964    0.019892    0.360360    0.803144   
        1.312296    1.753012    2.182925    2.816923   
        3.589699    4.036401    3.822982    3.171841   
        2.538224    2.066487    1.609336    1.104864   
        0.648556    0.282781   -0.038939   -0.316414   
       -0.316414   -0.432198   -0.457097   -0.370755   
       -0.185282    0.058368    0.364769    0.770028   
        1.235179    1.674970    2.124284    2.714907   
        3.401423    3.867527    3.841459    3.398811   
        2.829032    2.304070    1.812387    1.328977   
        0.885785    0.501152    0.163976   -0.116329   
       -0.038939   -0.194997   -0.253964   -0.185282   
       -0.096002    0.163078    0.442675    0.803144   
        1.221111    1.738155    2.179006    2.598225   
        3.197746    3.888317    4.199887    3.844642   
        3.116819    2.496155    2.080882    1.669364   
        1.196294    0.783035    0.474539    0.163976   
        0.282781    0.117417    0.019892    0.058368   
        0.163078    0.342863    0.595358    0.916289   
        1.285820    1.700657    2.152094    2.636348   
        3.164194    3.690490    4.034523    3.982795   
        3.525861    2.906747    2.371935    1.952471   
        1.549226    1.136347    0.783035    0.501152   
        0.648556    0.456661    0.360360    0.364769   
        0.442675    0.595358    0.819335    1.104864   
        1.473361    1.806101    2.243769    2.611123   
        3.123786    3.747634    4.183397    4.168621   
        3.768260    3.252332    2.782718    2.347662   
        1.921342    1.549226    1.196294    0.885785   
        1.104864    0.916289    0.803144    0.770028   
        0.803144    0.916289    1.104864    1.328977   
        1.669364    1.952471    2.347662    2.738989   
        3.124411    3.659986    4.253031    4.526260   
        4.253031    3.659986    3.124411    2.738989   
        2.347662    1.952471    1.669364    1.328977   
        1.609336    1.439782    1.312296    1.235179   
        1.221111    1.285820    1.473361    1.669364   
        1.904334    2.146162    2.486767    2.853957   
        3.218427    3.708640    4.267398    4.615704   
        4.530505    4.094987    3.574052    3.124411   
        2.782718    2.371935    2.080882    1.812387   
        2.066487    1.882293    1.753012    1.674970   
        1.738155    1.700657    1.806101    1.952471   
        2.146162    2.405541    2.666090    3.030804   
        3.357885    3.807934    4.297004    4.669501   
        4.744414    4.505879    4.094987    3.659986   
        3.252332    2.906747    2.496155    2.304070   
        2.538224    2.314737    2.182925    2.124284   
        2.179006    2.152094    2.243769    2.347662   
        2.486767    2.666090    2.904217    3.258890   
        3.560719    3.946141    4.386530    4.732686   
        4.846293    4.744414    4.530505    4.253031   
        3.768260    3.525861    3.116819    2.829032   
        3.171841    2.970939    2.816923    2.714907   
        2.598225    2.636348    2.611123    2.738989   
        2.853957    3.030804    3.258890    3.505997   
        3.810329    4.128267    4.459729    4.704114   
        4.732686    4.669501    4.615704    4.526260   
        4.168621    3.982795    3.844642    3.398811   
        3.822982    3.750573    3.589699    3.401423   
        3.197746    3.164194    3.123786    3.124411   
        3.218427    3.357885    3.560719    3.810329   
        4.073681    4.314964    4.437470    4.459729   
        4.386530    4.297004    4.267398    4.253031   
        4.183397    4.034523    4.199887    3.841459   
        4.036401    4.119831    4.036401    3.867527   
        3.888317    3.690490    3.747634    3.659986   
        3.708640    3.807934    3.946141    4.128267   
        4.314964    4.398612    4.314964    4.128267   
        3.946141    3.807934    3.708640    3.659986   
        3.747634    3.690490    3.888317    3.867527   
        3.589699    3.750573    3.822982    3.841459   
        4.199887    4.034523    4.183397    4.253031   
        4.267398    4.297004    4.386530    4.459729   
        4.437470    4.314964    4.073681    3.810329   
        3.560719    3.357885    3.218427    3.124411   
        3.123786    3.164194    3.197746    3.401423   
        2.816923    2.970939    3.171841    3.398811   
        3.844642    3.982795    4.168621    4.526260   
        4.615704    4.669501    4.732686    4.704114   
        4.459729    4.128267    3.810329    3.505997   
        3.258890    3.030804    2.853957    2.738989   
        2.611123    2.636348    2.598225    2.714907   