Running Job Report
--------------------------------------------
DATE START : Mon 13 May 16:45:04 BST 2024

Pre-Calc Summary
--------------------------------------------
  date:                Mon 13 May 16:45:04 BST 2024
  hostname:            hx1-c08-8-4
  system:              Linux hx1-c08-8-4 4.18.0-372.32.1.el8_6.x86_64 #1 SMP Fri Oct 7 12:35:10 EDT 2022 x86_64 x86_64 x86_64 GNU/Linux
  user:                hz1420
  input:               /gpfs/home/hz1420/Graphene-Sulfur/defect_density/5x5-DV/5x5DV-chg.d3
  output:              /gpfs/home/hz1420/Graphene-Sulfur/defect_density/5x5-DV/5x5DV-chg.out
  temporary directory: /gpfs/home/hz1420/tmp/5x5DV-chg_70089.pbs-6.hpc.ic.ac
  executable script:   /gpfs/home/hz1420/GitHub/HPC-job-submission/Imperial-HPC-Job-Submission/run_exec
  executable dir:      /gpfs/home/hz1420/app/CRYSTAL23__foss2023a/bin
  mpi + exe command:    mpiexec -np 64 Pproperties
-------------------------------------------

Find input data: /gpfs/home/hz1420/Graphene-Sulfur/defect_density/5x5-DV/5x5DV-chg.d3
Find input reference: /gpfs/home/hz1420/Graphene-Sulfur/defect_density/5x5-DV/5x5DV-opt.f9
Find input reference: /gpfs/home/hz1420/Graphene-Sulfur/defect_density/5x5-DV/5x5DV-opt.f9
All files are synchonised.

Job Ready to Go
-------------------------------------------
  Job name       : 5x5DV-chg
  ID             : 70089.pbs-6.hpc.ic.ac.uk
  Command        : mpiexec -np 64 Pproperties >> /gpfs/home/hz1420/Graphene-Sulfur/defect_density/5x5-DV/5x5DV-chg.out 2>&1
  Temporary dir  : /gpfs/home/hz1420/tmp/5x5DV-chg_70089.pbs-6.hpc.ic.ac
  List of files  : total 1
-rw-r--r-- 1 hz1420 hpc-nmh 2381220 May 13 16:45 fort.20
-rw-r--r-- 1 hz1420 hpc-nmh 2381220 May 13 16:45 fort.9
-rw-r--r-- 1 hz1420 hpc-nmh     122 May 13 16:45 INPUT
-rw-r--r-- 1 hz1420 hpc-nmh    7915 May 13 16:45 Job_script_70089.pbs-6.hpc.ic.ac
  Input script   :
NEWK
44 88
0 0
BOLTZTRA
TRANGE
300 500 10
MURANGE
-4.838 -1.838 0.1
TDFRANGE
-4.838 -1.838 0.001
RELAXTIM
175
END
PPAN
END
-------------------------------------------

          64 PROCESSORS WORKING

         
 *******************************************************************************
 *                                                                             *
 *                               CRYSTAL22                                     *
 *                      public : 1.0.1 - Jul 29th, 2021                        *
 *                       HTTP://WWW.CRYSTAL.UNITO.IT                           *
 *                                                                             *
 *                              MAIN AUTHORS                                   *
 *                                                                             *
 *  R. DOVESI(1,11), V.R. SAUNDERS(2), C. ROETTI(1,11), R. ORLANDO(1,11),      *
 *  C.M. ZICOVICH-WILSON(1,3), F. PASCALE(4), B. CIVALLERI(1,11),              *
 *  K. DOLL(5), N.M. HARRISON(6), I.J. BUSH(7), Ph. D'ARCO(8),                 *
 *  M. LLUNELL(9), M. CAUSA'(10), Y. NOEL(8), L. MASCHIO(1,11), A. ERBA(1,11)  *
 *  M. RE'RAT(14), S. CASASSA(1,11), B.G. SEARLE(2), J.K. DESMARAIS(1)         *
 *                                                                             *
 *        CONTRIBUTIONS TO THE CODE HAVE ALSO BEEN GIVEN BY                    *
 *                                                                             *
 *  M. FERRABONE(1,11), M. DE LA PIERRE(1,11), M. FERRERO(1,11),               *
 *  J. BAIMA(1,11), E. ALBANESE(1,11), M.F. PEINTINGER(12), R. BAST(13),       *
 *  B. KIRTMAN(15), V. LACIVITA(1,11), R. DEMICHELIS(1,16)                     *
 *  G. BRANDEBURG(17), S. SALUSTRO(1,11), G. SANSONE(1,11)                     *
 *  M.T. RUGGIERO(18), L.E. DAGA(1), L. DONA'(1), A. COSSARD(1)                *
 *                                                                             *
 * (1) THEORETICAL CHEMISTRY GROUP - UNIVERSITA' DI TORINO - TORINO (ITALY)    *
 * (2) SCIENTIFIC COMPUTING DEPARTMENT - STFC DARESBURY (UK)                   *
 * (3) UNIVERSIDAD AUTONOMA DEL ESTADO DE MORELOS - CUERNAVACA (MEXICO)        *
 * (4) UNIVERSITE' DE LORRAINE - NANCY (FRANCE)                                *
 * (5) UNIVERSITAET STUTTGART- STUTTGART (GERMANY)                             *
 * (6) IMPERIAL COLLEGE - LONDON (UK)                                          *
 * (7) SCIENTIFIC COMPUTING DEPARTMENT - STFC RAL (UK)                         *
 * (8) UPMC - SORBONNE UNIVERSITES - PARIS (FRANCE)                            *
 * (9) UNIVERSIDAD DE BARCELONA - BARCELONA (SPAIN)                            *
 *(10) UNIVERSITA' DI NAPOLI "FEDERICO II" - NAPOLI (ITALY)                    *
 *(11) NIS - NANOSTRUCTURED INTERFACES AND SURFACES - TORINO (ITALY)           *
 *(12) MPI FUER CHEMISCHE ENERGIEKONVERSION - MUELHEIM AN DER RUHR (GERMANY)   *
 *(13) UNIVERSITY OF TROMSO - TROMSO (NORWAY)                                  *
 *(14) UNIVERSITE' DE PAU ET DES PAYS DE L'ADOUR - PAU (FRANCE)                *
 *(15) UNIVERSITY OF CALIFORNIA SANTA BARBARA - SANTA BARBARA (USA)            *
 *(16) CURTIN UNIVERSITY - PERTH (AUSTRALIA)                                   *
 *(17) UNIVERSITY COLLEGE LONDON - LONDON (UK)                                 *
 *(18) UNIVERSITY OF VERMONT - BURLINGTON (USA)                                *
 *                                                                             *
 *******************************************************************************
 EEEEEEEEEE STARTING  DATE 13 05 2024 TIME 16:45:08.0
 INFORMATION **** SET_MPP **** PCRYSTAL CALCULATION

 *******************************************************************************
 Compress free G 2 S sub DV585                                                   
 CRYSTAL - PROPERTIES - TYPE OF CALCULATION :  RESTRICTED CLOSED SHELL
 *******************************************************************************
 KOHN-SHAM HAMILTONIAN

 (EXCHANGE)[CORRELATION] FUNCTIONAL:(HSE06 SR/GGA)[PERDEW-BURKE-ERNZERHOF]

 RANGE-SEPARATED HYBRID FUNCTIONAL 
 OMEGA (SHORT-RANGE)[LONG-RANGE]:(    0.1100)[    0.0000]

 HYBRID EXCHANGE - PERCENTAGE OF FOCK EXCHANGE    25.0000

 DIRECT LATTICE VECTOR COMPONENTS (ANGSTROM)
        10.61805   -6.11158    0.00000
         0.00000   12.22317    0.00000
         0.00000    0.00000  500.00000

 LATTICE PARAMETERS  (ANGSTROM AND DEGREES) - PRIMITIVE CELL
       A          B          C         ALPHA      BETA     GAMMA        VOLUME
   12.25130   12.22317  500.00000     90.0000   90.0000  119.9241     129.78617
 *******************************************************************************
 N. OF ATOMS PER CELL        50 COULOMB OVERLAP TOL          (T1) 10**   -7
 NUMBER OF SHELLS           202 COULOMB PENETRATION TOL      (T2) 10**   -7
 NUMBER OF AO               708 EXCHANGE OVERLAP TOL         (T3) 10**   -7
 N. OF ELECTRONS PER CELL   320 EXCHANGE PSEUDO OVP (F(G))   (T4) 10**   -7
 CORE ELECTRONS PER CELL    116 EXCHANGE PSEUDO OVP (P(G))   (T5) 10**  -14
 N. OF SYMMETRY OPERATORS     2 POLE ORDER IN MONO ZONE                   4
 *******************************************************************************
   ATOM N.AT.  SHELL    X(A)      Y(A)      Z(A)      EXAD       N.ELECT.
 *******************************************************************************
    1    6 C     4    -1.385     2.435     0.449   8.000E-01       5.974
    2    6 C     4    -1.416     4.879    -0.028   8.000E-01       5.999
    3    6 C     4    -1.416    -4.879    -0.028   8.000E-01       5.999
    4    6 C     4    -1.385    -2.435     0.449   8.000E-01       5.974
    5    6 C     4     0.772    -1.256     0.132   8.000E-01       5.949
    6    6 C     4     0.772     1.256     0.132   8.000E-01       5.949
    7    6 C     4     0.698     3.662    -0.140   8.000E-01       5.998
    8    6 C     4     0.698    -6.112    -0.208   8.000E-01       6.000
    9    6 C     4     0.698    -3.662    -0.140   8.000E-01       5.998
   10    6 C     4     2.838    -2.444    -0.326   8.000E-01       5.995
   11    6 C     4     2.841    -0.000    -0.230   8.000E-01       5.992
   12    6 C     4     2.838     2.444    -0.326   8.000E-01       5.995
   13    6 C     4     2.817    -7.338    -0.299   8.000E-01       6.001
   14    6 C     4     2.817    -4.885    -0.299   8.000E-01       6.001
   15    6 C     4     4.941    -3.658    -0.189   8.000E-01       5.991
   16    6 C     4     4.968    -1.224    -0.258   8.000E-01       5.993
   17    6 C     4     4.968     1.224    -0.258   8.000E-01       5.993
   18    6 C     4     4.941    -8.565    -0.189   8.000E-01       5.991
   19    6 C     4     4.908    -6.112     0.046   8.000E-01       5.981
   20    6 C     4    -3.715     1.334     0.659   8.000E-01       6.094
   21    6 C     4    -3.537     3.648     0.059   8.000E-01       5.992
   22    6 C     4    -3.533     6.112    -0.116   8.000E-01       5.993
   23    6 C     4    -3.537    -3.648     0.059   8.000E-01       5.992
   24    6 C     4    -3.715    -1.334     0.659   8.000E-01       6.094
   25    6 C     4    -0.532    -1.334     0.654   8.000E-01       6.094
   26    6 C     4    -0.532     1.334     0.654   8.000E-01       6.094
   27    6 C     4    -0.710     3.649     0.058   8.000E-01       5.992
   28    6 C     4    -0.714     6.112    -0.115   8.000E-01       5.993
   29    6 C     4    -0.710    -3.649     0.058   8.000E-01       5.992
   30    6 C     4     1.430    -2.454    -0.191   8.000E-01       5.991
   31    6 C     4     1.463    -0.000     0.041   8.000E-01       5.982
   32    6 C     4     1.430     2.454    -0.191   8.000E-01       5.991
   33    6 C     4     1.403     4.887    -0.257   8.000E-01       5.993
   34    6 C     4     1.403    -4.887    -0.257   8.000E-01       5.993
   35    6 C     4     3.533    -3.668    -0.325   8.000E-01       5.995
   36    6 C     4     3.554    -1.227    -0.300   8.000E-01       6.001
   37    6 C     4     3.554     1.227    -0.300   8.000E-01       6.001
   38    6 C     4     3.533     3.668    -0.325   8.000E-01       5.995
   39    6 C     4     3.530    -6.112    -0.227   8.000E-01       5.992
   40    6 C     4    -5.019     1.256     0.136   8.000E-01       5.949
   41    6 C     4    -4.945     3.662    -0.139   8.000E-01       5.998
   42    6 C     4    -4.945     6.112    -0.209   8.000E-01       6.000
   43    6 C     4    -4.945     8.561    -0.139   8.000E-01       5.998
   44    6 C     4    -5.019    -1.256     0.136   8.000E-01       5.949
   45    6 C     4    -2.862     2.435     0.451   8.000E-01       5.974
   46    6 C     4    -2.831     4.879    -0.028   8.000E-01       5.999
   47    6 C     4    -2.831     7.345    -0.028   8.000E-01       5.999
   48    6 C     4    -2.862    -2.435     0.451   8.000E-01       5.974
   49   16 S     5    -3.508    -0.000     1.795   6.500E-01      16.064
   50   16 S     5    -0.743    -0.000     1.788   6.500E-01      16.063
 *******************************************************************************
 DE(K)                   0.000E+00  ENERGY LEVEL SHIFTING        0.00000
 TOTAL ENERGY -2.6220108826481E+03  CONVERGENCE ON ENER       -3.601E-09
 KIN. ENERGY   2.6150852217875E+03  VIR. COEFF.           1.04686254E+00
 N. OF SCF CYCLES                5  FERMI ENERGY              -0.123E+00
 WEIGHT OF F(I) IN F(I+1)      80
 SHRINK. FACT.(MONKH.)     6  6  1  SHRINKING FACTOR(GILAT NET)       12
 NUMBER OF K POINTS IN THE IBZ  13  CELL VOLUME (A.U.)        464.866186
 *******************************************************************************

 GCALCO - MAX INDICES DIRECT LATTICE VECTOR    83    83     0
 NO.OF VECTORS CREATED 6999 STARS 1785 RMAX  1016.42947 BOHR
 TTTTTTTTTTTTTTTTTTTTTTTTTTTTTT gordsh1     TELAPSE        2.89 TCPU        1.41

 MATRIX SIZE: P(G)  423384, F(G)  100116, P(G) IRR  110172, F(G) IRR   53262
 MAX G-VECTOR INDEX FOR 1- AND 2-ELECTRON INTEGRALS  11


 CAPPA:IS1  6;IS2  6;IS3  1; K PTS MONK NET  13; SYMMOPS:K SPACE   4;G SPACE   2


 CAPPA:IS1 44;IS2 44;IS3  1; K PTS MONK NET 507; SYMMOPS:K SPACE   4;G SPACE   2

 *******************************************************************************
 RESTART WITH NEW K POINTS NET
 *******************************************************************************
 POINTS IN THE IBZ                 507 POINTS(GILAT NET)              1981
 SHRINK FACTORS(MONK.)        44 44  1 SHRINK FACTOR(GILAT)             88
 *******************************************************************************
 *** K POINTS COORDINATES (OBLIQUE COORDINATES IN UNITS OF IS = 44)
   1-R(  0  0  0)   2-C(  1  0  0)   3-C(  2  0  0)   4-C(  3  0  0)
   5-C(  4  0  0)   6-C(  5  0  0)   7-C(  6  0  0)   8-C(  7  0  0)
   9-C(  8  0  0)  10-C(  9  0  0)  11-C( 10  0  0)  12-C( 11  0  0)
  13-C( 12  0  0)  14-C( 13  0  0)  15-C( 14  0  0)  16-C( 15  0  0)
  17-C( 16  0  0)  18-C( 17  0  0)  19-C( 18  0  0)  20-C( 19  0  0)
  21-C( 20  0  0)  22-C( 21  0  0)  23-R( 22  0  0)  24-C(  0  1  0)
  25-C(  1  1  0)  26-C(  2  1  0)  27-C(  3  1  0)  28-C(  4  1  0)
  29-C(  5  1  0)  30-C(  6  1  0)  31-C(  7  1  0)  32-C(  8  1  0)
  33-C(  9  1  0)  34-C( 10  1  0)  35-C( 11  1  0)  36-C( 12  1  0)
  37-C( 13  1  0)  38-C( 14  1  0)  39-C( 15  1  0)  40-C( 16  1  0)
  41-C( 17  1  0)  42-C( 18  1  0)  43-C( 19  1  0)  44-C( 20  1  0)
  45-C( 21  1  0)  46-C(  0  2  0)  47-C(  1  2  0)  48-C(  2  2  0)
  49-C(  3  2  0)  50-C(  4  2  0)  51-C(  5  2  0)  52-C(  6  2  0)
  53-C(  7  2  0)  54-C(  8  2  0)  55-C(  9  2  0)  56-C( 10  2  0)
  57-C( 11  2  0)  58-C( 12  2  0)  59-C( 13  2  0)  60-C( 14  2  0)
  61-C( 15  2  0)  62-C( 16  2  0)  63-C( 17  2  0)  64-C( 18  2  0)
  65-C( 19  2  0)  66-C( 20  2  0)  67-C( 21  2  0)  68-C( 43  2  0)
  69-C(  0  3  0)  70-C(  1  3  0)  71-C(  2  3  0)  72-C(  3  3  0)
  73-C(  4  3  0)  74-C(  5  3  0)  75-C(  6  3  0)  76-C(  7  3  0)
  77-C(  8  3  0)  78-C(  9  3  0)  79-C( 10  3  0)  80-C( 11  3  0)
  81-C( 12  3  0)  82-C( 13  3  0)  83-C( 14  3  0)  84-C( 15  3  0)
  85-C( 16  3  0)  86-C( 17  3  0)  87-C( 18  3  0)  88-C( 19  3  0)
  89-C( 20  3  0)  90-C( 42  3  0)  91-C(  0  4  0)  92-C(  1  4  0)
  93-C(  2  4  0)  94-C(  3  4  0)  95-C(  4  4  0)  96-C(  5  4  0)
  97-C(  6  4  0)  98-C(  7  4  0)  99-C(  8  4  0) 100-C(  9  4  0)
 101-C( 10  4  0) 102-C( 11  4  0) 103-C( 12  4  0) 104-C( 13  4  0)
 105-C( 14  4  0) 106-C( 15  4  0) 107-C( 16  4  0) 108-C( 17  4  0)
 109-C( 18  4  0) 110-C( 19  4  0) 111-C( 20  4  0) 112-C( 41  4  0)
 113-C( 42  4  0) 114-C(  0  5  0) 115-C(  1  5  0) 116-C(  2  5  0)
 117-C(  3  5  0) 118-C(  4  5  0) 119-C(  5  5  0) 120-C(  6  5  0)
 121-C(  7  5  0) 122-C(  8  5  0) 123-C(  9  5  0) 124-C( 10  5  0)
 125-C( 11  5  0) 126-C( 12  5  0) 127-C( 13  5  0) 128-C( 14  5  0)
 129-C( 15  5  0) 130-C( 16  5  0) 131-C( 17  5  0) 132-C( 18  5  0)
 133-C( 19  5  0) 134-C( 40  5  0) 135-C( 41  5  0) 136-C(  0  6  0)
 137-C(  1  6  0) 138-C(  2  6  0) 139-C(  3  6  0) 140-C(  4  6  0)
 141-C(  5  6  0) 142-C(  6  6  0) 143-C(  7  6  0) 144-C(  8  6  0)
 145-C(  9  6  0) 146-C( 10  6  0) 147-C( 11  6  0) 148-C( 12  6  0)
 149-C( 13  6  0) 150-C( 14  6  0) 151-C( 15  6  0) 152-C( 16  6  0)
 153-C( 17  6  0) 154-C( 18  6  0) 155-C( 19  6  0) 156-C( 39  6  0)
 157-C( 40  6  0) 158-C( 41  6  0) 159-C(  0  7  0) 160-C(  1  7  0)
 161-C(  2  7  0) 162-C(  3  7  0) 163-C(  4  7  0) 164-C(  5  7  0)
 165-C(  6  7  0) 166-C(  7  7  0) 167-C(  8  7  0) 168-C(  9  7  0)
 169-C( 10  7  0) 170-C( 11  7  0) 171-C( 12  7  0) 172-C( 13  7  0)
 173-C( 14  7  0) 174-C( 15  7  0) 175-C( 16  7  0) 176-C( 17  7  0)
 177-C( 18  7  0) 178-C( 38  7  0) 179-C( 39  7  0) 180-C( 40  7  0)
 181-C(  0  8  0) 182-C(  1  8  0) 183-C(  2  8  0) 184-C(  3  8  0)
 185-C(  4  8  0) 186-C(  5  8  0) 187-C(  6  8  0) 188-C(  7  8  0)
 189-C(  8  8  0) 190-C(  9  8  0) 191-C( 10  8  0) 192-C( 11  8  0)
 193-C( 12  8  0) 194-C( 13  8  0) 195-C( 14  8  0) 196-C( 15  8  0)
 197-C( 16  8  0) 198-C( 17  8  0) 199-C( 18  8  0) 200-C( 37  8  0)
 201-C( 38  8  0) 202-C( 39  8  0) 203-C( 40  8  0) 204-C(  0  9  0)
 205-C(  1  9  0) 206-C(  2  9  0) 207-C(  3  9  0) 208-C(  4  9  0)
 209-C(  5  9  0) 210-C(  6  9  0) 211-C(  7  9  0) 212-C(  8  9  0)
 213-C(  9  9  0) 214-C( 10  9  0) 215-C( 11  9  0) 216-C( 12  9  0)
 217-C( 13  9  0) 218-C( 14  9  0) 219-C( 15  9  0) 220-C( 16  9  0)
 221-C( 17  9  0) 222-C( 36  9  0) 223-C( 37  9  0) 224-C( 38  9  0)
 225-C( 39  9  0) 226-C(  0 10  0) 227-C(  1 10  0) 228-C(  2 10  0)
 229-C(  3 10  0) 230-C(  4 10  0) 231-C(  5 10  0) 232-C(  6 10  0)
 233-C(  7 10  0) 234-C(  8 10  0) 235-C(  9 10  0) 236-C( 10 10  0)
 237-C( 11 10  0) 238-C( 12 10  0) 239-C( 13 10  0) 240-C( 14 10  0)
 241-C( 15 10  0) 242-C( 16 10  0) 243-C( 17 10  0) 244-C( 35 10  0)
 245-C( 36 10  0) 246-C( 37 10  0) 247-C( 38 10  0) 248-C( 39 10  0)
 249-C(  0 11  0) 250-C(  1 11  0) 251-C(  2 11  0) 252-C(  3 11  0)
 253-C(  4 11  0) 254-C(  5 11  0) 255-C(  6 11  0) 256-C(  7 11  0)
 257-C(  8 11  0) 258-C(  9 11  0) 259-C( 10 11  0) 260-C( 11 11  0)
 261-C( 12 11  0) 262-C( 13 11  0) 263-C( 14 11  0) 264-C( 15 11  0)
 265-C( 16 11  0) 266-C( 34 11  0) 267-C( 35 11  0) 268-C( 36 11  0)
 269-C( 37 11  0) 270-C( 38 11  0) 271-C(  0 12  0) 272-C(  1 12  0)
 273-C(  2 12  0) 274-C(  3 12  0) 275-C(  4 12  0) 276-C(  5 12  0)
 277-C(  6 12  0) 278-C(  7 12  0) 279-C(  8 12  0) 280-C(  9 12  0)
 281-C( 10 12  0) 282-C( 11 12  0) 283-C( 12 12  0) 284-C( 13 12  0)
 285-C( 14 12  0) 286-C( 15 12  0) 287-C( 16 12  0) 288-C( 33 12  0)
 289-C( 34 12  0) 290-C( 35 12  0) 291-C( 36 12  0) 292-C( 37 12  0)
 293-C( 38 12  0) 294-C(  0 13  0) 295-C(  1 13  0) 296-C(  2 13  0)
 297-C(  3 13  0) 298-C(  4 13  0) 299-C(  5 13  0) 300-C(  6 13  0)
 301-C(  7 13  0) 302-C(  8 13  0) 303-C(  9 13  0) 304-C( 10 13  0)
 305-C( 11 13  0) 306-C( 12 13  0) 307-C( 13 13  0) 308-C( 14 13  0)
 309-C( 15 13  0) 310-C( 32 13  0) 311-C( 33 13  0) 312-C( 34 13  0)
 313-C( 35 13  0) 314-C( 36 13  0) 315-C( 37 13  0) 316-C(  0 14  0)
 317-C(  1 14  0) 318-C(  2 14  0) 319-C(  3 14  0) 320-C(  4 14  0)
 321-C(  5 14  0) 322-C(  6 14  0) 323-C(  7 14  0) 324-C(  8 14  0)
 325-C(  9 14  0) 326-C( 10 14  0) 327-C( 11 14  0) 328-C( 12 14  0)
 329-C( 13 14  0) 330-C( 14 14  0) 331-C( 15 14  0) 332-C( 31 14  0)
 333-C( 32 14  0) 334-C( 33 14  0) 335-C( 34 14  0) 336-C( 35 14  0)
 337-C( 36 14  0) 338-C( 37 14  0) 339-C(  0 15  0) 340-C(  1 15  0)
 341-C(  2 15  0) 342-C(  3 15  0) 343-C(  4 15  0) 344-C(  5 15  0)
 345-C(  6 15  0) 346-C(  7 15  0) 347-C(  8 15  0) 348-C(  9 15  0)
 349-C( 10 15  0) 350-C( 11 15  0) 351-C( 12 15  0) 352-C( 13 15  0)
 353-C( 14 15  0) 354-C( 30 15  0) 355-C( 31 15  0) 356-C( 32 15  0)
 357-C( 33 15  0) 358-C( 34 15  0) 359-C( 35 15  0) 360-C( 36 15  0)
 361-C(  0 16  0) 362-C(  1 16  0) 363-C(  2 16  0) 364-C(  3 16  0)
 365-C(  4 16  0) 366-C(  5 16  0) 367-C(  6 16  0) 368-C(  7 16  0)
 369-C(  8 16  0) 370-C(  9 16  0) 371-C( 10 16  0) 372-C( 11 16  0)
 373-C( 12 16  0) 374-C( 13 16  0) 375-C( 14 16  0) 376-C( 29 16  0)
 377-C( 30 16  0) 378-C( 31 16  0) 379-C( 32 16  0) 380-C( 33 16  0)
 381-C( 34 16  0) 382-C( 35 16  0) 383-C( 36 16  0) 384-C(  0 17  0)
 385-C(  1 17  0) 386-C(  2 17  0) 387-C(  3 17  0) 388-C(  4 17  0)
 389-C(  5 17  0) 390-C(  6 17  0) 391-C(  7 17  0) 392-C(  8 17  0)
 393-C(  9 17  0) 394-C( 10 17  0) 395-C( 11 17  0) 396-C( 12 17  0)
 397-C( 13 17  0) 398-C( 28 17  0) 399-C( 29 17  0) 400-C( 30 17  0)
 401-C( 31 17  0) 402-C( 32 17  0) 403-C( 33 17  0) 404-C( 34 17  0)
 405-C( 35 17  0) 406-C(  0 18  0) 407-C(  1 18  0) 408-C(  2 18  0)
 409-C(  3 18  0) 410-C(  4 18  0) 411-C(  5 18  0) 412-C(  6 18  0)
 413-C(  7 18  0) 414-C(  8 18  0) 415-C(  9 18  0) 416-C( 10 18  0)
 417-C( 11 18  0) 418-C( 12 18  0) 419-C( 13 18  0) 420-C( 27 18  0)
 421-C( 28 18  0) 422-C( 29 18  0) 423-C( 30 18  0) 424-C( 31 18  0)
 425-C( 32 18  0) 426-C( 33 18  0) 427-C( 34 18  0) 428-C( 35 18  0)
 429-C(  0 19  0) 430-C(  1 19  0) 431-C(  2 19  0) 432-C(  3 19  0)
 433-C(  4 19  0) 434-C(  5 19  0) 435-C(  6 19  0) 436-C(  7 19  0)
 437-C(  8 19  0) 438-C(  9 19  0) 439-C( 10 19  0) 440-C( 11 19  0)
 441-C( 12 19  0) 442-C( 26 19  0) 443-C( 27 19  0) 444-C( 28 19  0)
 445-C( 29 19  0) 446-C( 30 19  0) 447-C( 31 19  0) 448-C( 32 19  0)
 449-C( 33 19  0) 450-C( 34 19  0) 451-C(  0 20  0) 452-C(  1 20  0)
 453-C(  2 20  0) 454-C(  3 20  0) 455-C(  4 20  0) 456-C(  5 20  0)
 457-C(  6 20  0) 458-C(  7 20  0) 459-C(  8 20  0) 460-C(  9 20  0)
 461-C( 10 20  0) 462-C( 11 20  0) 463-C( 12 20  0) 464-C( 25 20  0)
 465-C( 26 20  0) 466-C( 27 20  0) 467-C( 28 20  0) 468-C( 29 20  0)
 469-C( 30 20  0) 470-C( 31 20  0) 471-C( 32 20  0) 472-C( 33 20  0)
 473-C( 34 20  0) 474-C(  0 21  0) 475-C(  1 21  0) 476-C(  2 21  0)
 477-C(  3 21  0) 478-C(  4 21  0) 479-C(  5 21  0) 480-C(  6 21  0)
 481-C(  7 21  0) 482-C(  8 21  0) 483-C(  9 21  0) 484-C( 10 21  0)
 485-C( 11 21  0) 486-C( 24 21  0) 487-C( 25 21  0) 488-C( 26 21  0)
 489-C( 27 21  0) 490-C( 28 21  0) 491-C( 29 21  0) 492-C( 30 21  0)
 493-C( 31 21  0) 494-C( 32 21  0) 495-C( 33 21  0) 496-R(  0 22  0)
 497-C(  1 22  0) 498-C(  2 22  0) 499-C(  3 22  0) 500-C(  4 22  0)
 501-C(  5 22  0) 502-C(  6 22  0) 503-C(  7 22  0) 504-C(  8 22  0)
 505-C(  9 22  0) 506-C( 10 22  0) 507-C( 11 22  0)
 TTTTTTTTTTTTTTTTTTTTTTTTTTTTTT NEWK        TELAPSE       23.52 TCPU       21.67
 *******************************************************************************

           THERMOELECTRIC AND ELECTRONIC TRANSPORT PROPERTIES CALCULATION

 (Physical Constants: CODATA 2014 NIST, arXiv:1507.07956 http://physics.nist.gov/cuu/Constants/index.html)

 *******************************************************************************
  RELAXATION TIME (fs):                175.0000
  MIN TEMPERATURE VALUE (K):           300.0000
  MAX TEMPERATURE VALUE (K):           500.0000
  STEP TEMPERATURE VALUE (K):           10.0000
  MIN CHEMICAL POTENTIAL VALUE (eV):    -4.8380
  MAX CHEMICAL POTENTIAL VALUE (eV):    -1.8380
  STEP CHEMICAL POTENTIAL VALUE (eV):    0.1000
  MIN TDF VALUE (eV):                   -4.8380
  MAX TDF VALUE (eV):                   -1.8380
  STEP TDF VALUE (eV):                   0.0010
  SMEARING FACTOR:                       0.0000
  SMEARING SCHEME:                      GAUSSIAN
 *******************************************************************************
 TDF CALCULATION IN PROGRESS...
 TTTTTTTTTTTTTTTTTTTTTTTTTTTTTT SMAT        TELAPSE       59.31 TCPU       56.71
 TDF CALCULATION PERFORMED
 TDF CALCULATED ALONG THE XX,XY,YY DIRECTIONS
 TTTTTTTTTTTTTTTTTTTTTTTTTTTTTT TDF_CALC    TELAPSE      282.78 TCPU      277.78
 ELECTRICAL CONDUCTIVITY DATA WRITTEN ON SIGMA.DAT
 ELECTRICAL CONDUCTIVITY * SEEBECK COEFFICIENT DATA WRITTEN ON SIGMAS.DAT
 SEEBECK COEFFICIENT DATA WRITTEN ON SEEBECK.DAT
 ELECTRICAL THERMAL CONDUCTIVITY DATA WRITTEN ON KAPPA.DAT
 TRANSPORT DISTRIBUTION FUNCTION DATA WRITTEN ON TDF.DAT
 TTTTTTTTTTTTTTTTTTTTTTTTTTTTTT BOLTZTRA    TELAPSE      282.89 TCPU      277.86

 NEIGHBORS OF THE NON-EQUIVALENT ATOMS

 N = NUMBER OF NEIGHBORS AT DISTANCE R
    ATOM  N     R/ANG      R/AU   NEIGHBORS (ATOM LABELS AND CELL INDICES)
   1 C    1     1.4076     2.6599   26 C    0 0 0
   1 C    1     1.4425     2.7259   27 C    0 0 0
   1 C    1     1.4774     2.7918   45 C    0 0 0
   1 C    1     2.4788     4.6843    6 C    0 0 0
   1 C    1     2.4882     4.7020    7 C    0 0 0
   1 C    1     2.4899     4.7052    2 C    0 0 0

   2 C    1     1.4142     2.6725   46 C    0 0 0
   2 C    1     1.4211     2.6856   27 C    0 0 0
   2 C    1     1.4217     2.6866   28 C    0 0 0
   2 C    1     2.4419     4.6146    7 C    0 0 0
   2 C    1     2.4512     4.6320   22 C    0 0 0
   2 C    1     2.4533     4.6360   21 C    0 0 0

   5 C    1     1.4042     2.6536   30 C    0 0 0
   5 C    1     1.4070     2.6588   25 C    0 0 0
   5 C    1     1.4359     2.7135   31 C    0 0 0
   5 C    1     2.4231     4.5789    9 C    0 0 0
   5 C    1     2.4268     4.5860   10 C    0 0 0
   5 C    1     2.4474     4.6248   11 C    0 0 0

   7 C    1     1.4137     2.6715   32 C    0 0 0
   7 C    1     1.4181     2.6799   33 C    0 0 0
   7 C    1     1.4219     2.6870   27 C    0 0 0
   7 C    1     2.4231     4.5789    6 C    0 0 0
   7 C    1     2.4419     4.6146    2 C    0 0 0
   7 C    1     2.4503     4.6304    8 C    0 1 0

   8 C    2     1.4137     2.6714   33 C    0-1 0   34 C    0 0 0
   8 C    1     1.4147     2.6733   28 C    0-1 0
   8 C    2     2.4503     4.6304    7 C    0-1 0    9 C    0 0 0
   8 C    2     2.4503     4.6304   13 C    0 0 0   14 C    0 0 0
   8 C    2     2.4540     4.6373    2 C    0-1 0    3 C    0 0 0
   8 C    1     2.8320     5.3518   39 C    0 0 0

  10 C    1     1.4072     2.6593   35 C    0 0 0
  10 C    1     1.4129     2.6700   36 C    0 0 0
  10 C    1     1.4147     2.6735   30 C    0 0 0
  10 C    1     2.4268     4.5860    5 C    0 0 0
  10 C    1     2.4326     4.5970   15 C    0 0 0
  10 C    1     2.4412     4.6132   14 C    0 0 0

  11 C    1     1.4050     2.6551   31 C    0 0 0
  11 C    2     1.4203     2.6840   36 C    0 0 0   37 C    0 0 0
  11 C    2     2.4461     4.6224   10 C    0 0 0   12 C    0 0 0
  11 C    2     2.4474     4.6248    5 C    0 0 0    6 C    0 0 0
  11 C    2     2.4543     4.6380   16 C    0 0 0   17 C    0 0 0
  11 C    2     2.8311     5.3500   30 C    0 0 0   32 C    0 0 0

  13 C    1     1.4128     2.6699   38 C    0-1 0
  13 C    1     1.4149     2.6737   33 C    0-1 0
  13 C    1     1.4202     2.6839   39 C    0 0 0
  13 C    1     2.4412     4.6132   12 C    0-1 0
  13 C    1     2.4485     4.6270   19 C    0 0 0
  13 C    1     2.4503     4.6304    8 C    0 0 0

  15 C    1     1.4043     2.6537   40 C    1 0 0
  15 C    1     1.4137     2.6715   41 C    1 0 0
  15 C    1     1.4148     2.6735   35 C    0 0 0
  15 C    1     2.4122     4.5584   20 C    1 0 0
  15 C    1     2.4326     4.5970   10 C    0 0 0
  15 C    1     2.4348     4.6012   16 C    0 0 0

  16 C    1     1.4137     2.6715   42 C    1 0 0
  16 C    1     1.4149     2.6738   36 C    0 0 0
  16 C    1     1.4182     2.6801   41 C    1 0 0
  16 C    1     2.4348     4.6012   15 C    0 0 0
  16 C    1     2.4488     4.6276   17 C    0 0 0
  16 C    1     2.4494     4.6286   22 C    1 0 0

  19 C    1     1.4051     2.6552   39 C    0 0 0
  19 C    2     1.4361     2.7138   40 C    1 0 0   44 C    1 0 0
  19 C    2     2.4485     4.6270   13 C    0 0 0   14 C    0 0 0
  19 C    2     2.4649     4.6580   15 C    0 0 0   18 C    0 0 0
  19 C    2     2.4771     4.6810   20 C    1 0 0   24 C    1 0 0
  19 C    1     2.8120     5.3139   49 S    1 0 0

  20 C    1     1.4072     2.6593   40 C    0 0 0
  20 C    1     1.4079     2.6605   45 C    0 0 0
  20 C    1     1.7647     3.3348   49 S    0 0 0
  20 C    1     2.3970     4.5298   21 C    0 0 0
  20 C    1     2.4122     4.5584   15 C   -1 0 0
  20 C    1     2.4771     4.6810   19 C   -1 0 0

  21 C    1     1.4213     2.6858   46 C    0 0 0
  21 C    1     1.4219     2.6870   41 C    0 0 0
  21 C    1     1.4427     2.7263   45 C    0 0 0
  21 C    1     2.3970     4.5298   20 C    0 0 0
  21 C    1     2.4533     4.6360    2 C    0 0 0
  21 C    1     2.4631     4.6546   15 C   -1 0 0

  22 C    1     1.4147     2.6734   42 C    0 0 0
  22 C    2     1.4218     2.6868   46 C    0 0 0   47 C    0 0 0
  22 C    2     2.4494     4.6286   16 C   -1 0 0   17 C   -1 0 0
  22 C    2     2.4512     4.6320    2 C    0 0 0    3 C    0 1 0
  22 C    2     2.4694     4.6665   21 C    0 0 0   23 C    0 1 0
  22 C    1     2.8192     5.3275   28 C    0 0 0

  25 C    1     1.4070     2.6588    5 C    0 0 0
  25 C    1     1.4076     2.6599    4 C    0 0 0
  25 C    1     1.7639     3.3334   50 S    0 0 0
  25 C    1     2.3964     4.5286   29 C    0 0 0
  25 C    1     2.4115     4.5570   30 C    0 0 0
  25 C    1     2.4770     4.6808   31 C    0 0 0

  27 C    1     1.4211     2.6856    2 C    0 0 0
  27 C    1     1.4219     2.6870    7 C    0 0 0
  27 C    1     1.4425     2.7259    1 C    0 0 0
  27 C    1     2.3964     4.5286   26 C    0 0 0
  27 C    1     2.4531     4.6356   46 C    0 0 0
  27 C    1     2.4632     4.6549   32 C    0 0 0

  28 C    1     1.4147     2.6733    8 C    0 1 0
  28 C    2     1.4217     2.6866    2 C    0 0 0    3 C    0 1 0
  28 C    2     2.4494     4.6287   33 C    0 0 0   34 C    0 1 0
  28 C    2     2.4512     4.6321   46 C    0 0 0   47 C    0 0 0
  28 C    2     2.4691     4.6659   27 C    0 0 0   29 C    0 1 0
  28 C    1     2.8192     5.3275   22 C    0 0 0

  30 C    1     1.4042     2.6536    5 C    0 0 0
  30 C    1     1.4137     2.6715    9 C    0 0 0
  30 C    1     1.4147     2.6735   10 C    0 0 0
  30 C    1     2.4115     4.5570   25 C    0 0 0
  30 C    1     2.4326     4.5969   35 C    0 0 0
  30 C    1     2.4347     4.6009   34 C    0 0 0

  31 C    1     1.4050     2.6551   11 C    0 0 0
  31 C    2     1.4359     2.7135    5 C    0 0 0    6 C    0 0 0
  31 C    2     2.4484     4.6268   36 C    0 0 0   37 C    0 0 0
  31 C    2     2.4648     4.6577   30 C    0 0 0   32 C    0 0 0
  31 C    2     2.4770     4.6808   25 C    0 0 0   26 C    0 0 0
  31 C    1     2.8141     5.3178   50 S    0 0 0

  33 C    1     1.4137     2.6714    8 C    0 1 0
  33 C    1     1.4149     2.6737   13 C    0 1 0
  33 C    1     1.4181     2.6799    7 C    0 0 0
  33 C    1     2.4347     4.6009   32 C    0 0 0
  33 C    1     2.4486     4.6272   34 C    0 1 0
  33 C    1     2.4494     4.6287   28 C    0 0 0

  35 C    1     1.4072     2.6593   10 C    0 0 0
  35 C    1     1.4128     2.6699   14 C    0 0 0
  35 C    1     1.4148     2.6735   15 C    0 0 0
  35 C    1     2.4270     4.5863   40 C    1 0 0
  35 C    1     2.4326     4.5969   30 C    0 0 0
  35 C    1     2.4413     4.6133   36 C    0 0 0

  36 C    1     1.4129     2.6700   10 C    0 0 0
  36 C    1     1.4149     2.6738   16 C    0 0 0
  36 C    1     1.4203     2.6840   11 C    0 0 0
  36 C    1     2.4413     4.6133   35 C    0 0 0
  36 C    1     2.4484     4.6268   31 C    0 0 0
  36 C    1     2.4503     4.6304   42 C    1 0 0

  39 C    1     1.4051     2.6552   19 C    0 0 0
  39 C    2     1.4202     2.6839   13 C    0 0 0   14 C    0 0 0
  39 C    2     2.4460     4.6222   35 C    0 0 0   38 C    0-1 0
  39 C    2     2.4474     4.6250   40 C    1 0 0   44 C    1 0 0
  39 C    2     2.4543     4.6379   33 C    0-1 0   34 C    0 0 0
  39 C    2     2.8309     5.3496   15 C    0 0 0   18 C    0 0 0

  40 C    1     1.4043     2.6537   15 C   -1 0 0
  40 C    1     1.4072     2.6593   20 C    0 0 0
  40 C    1     1.4361     2.7138   19 C   -1 0 0
  40 C    1     2.4231     4.5791   41 C    0 0 0
  40 C    1     2.4270     4.5863   35 C   -1 0 0
  40 C    1     2.4474     4.6250   39 C   -1 0 0

  41 C    1     1.4137     2.6715   15 C   -1 0 0
  41 C    1     1.4182     2.6801   16 C   -1 0 0
  41 C    1     1.4219     2.6870   21 C    0 0 0
  41 C    1     2.4231     4.5791   40 C    0 0 0
  41 C    1     2.4419     4.6145   46 C    0 0 0
  41 C    1     2.4505     4.6307   42 C    0 0 0

  42 C    2     1.4137     2.6715   16 C   -1 0 0   17 C   -1 0 0
  42 C    1     1.4147     2.6734   22 C    0 0 0
  42 C    2     2.4503     4.6304   36 C   -1 0 0   37 C   -1 0 0
  42 C    2     2.4505     4.6307   41 C    0 0 0   43 C    0 0 0
  42 C    2     2.4541     4.6375   46 C    0 0 0   47 C    0 0 0
  42 C    1     2.8320     5.3517   11 C   -1 0 0

  45 C    1     1.4079     2.6605   20 C    0 0 0
  45 C    1     1.4427     2.7263   21 C    0 0 0
  45 C    1     1.4774     2.7918    1 C    0 0 0
  45 C    1     2.4785     4.6838   40 C    0 0 0
  45 C    1     2.4885     4.7027   41 C    0 0 0
  45 C    1     2.4903     4.7059   46 C    0 0 0

  46 C    1     1.4142     2.6725    2 C    0 0 0
  46 C    1     1.4213     2.6858   21 C    0 0 0
  46 C    1     1.4218     2.6868   22 C    0 0 0
  46 C    1     2.4419     4.6145   41 C    0 0 0
  46 C    1     2.4512     4.6321   28 C    0 0 0
  46 C    1     2.4531     4.6356   27 C    0 0 0

  49 S    2     1.7647     3.3348   20 C    0 0 0   24 C    0 0 0
  49 S    2     2.5713     4.8590   40 C    0 0 0   44 C    0 0 0
  49 S    1     2.7654     5.2259   50 S    0 0 0
  49 S    1     2.8120     5.3139   19 C   -1 0 0
  49 S    2     2.8553     5.3958   45 C    0 0 0   48 C    0 0 0
  49 S    2     3.4554     6.5298   25 C    0 0 0   26 C    0 0 0

  50 S    2     1.7639     3.3334   25 C    0 0 0   26 C    0 0 0
  50 S    2     2.5721     4.8605    5 C    0 0 0    6 C    0 0 0
  50 S    1     2.7654     5.2259   49 S    0 0 0
  50 S    1     2.8141     5.3178   31 C    0 0 0
  50 S    2     2.8523     5.3900    1 C    0 0 0    4 C    0 0 0
  50 S    2     3.4483     6.5164   20 C    0 0 0   24 C    0 0 0

 TTTTTTTTTTTTTTTTTTTTTTTTTTTTTT AFTER FIRST TELAPSE      283.02 TCPU      277.95
 MMMMMMMMMMMMMMMMMMMMMMMMMMMMMMMMMMMMMMMMMMMMMMMMMMMMMMMMMMMMMMMMMMMMMMMMMMMMMMM
     ALPHA+BETA ELECTRONS
 MULLIKEN POPULATION ANALYSIS - NO. OF ELECTRONS  320.000000

  ATOM    Z CHARGE  A.O. POPULATION

   1 C    6  5.974  1.996  0.302  0.544  0.551  0.425  0.867  0.336  0.350
                    0.561  0.003  0.007  0.006  0.013  0.013
   2 C    6  5.999  1.996  0.304  0.575  0.570  0.413  0.858  0.336  0.329
                    0.575  0.003  0.006  0.006  0.014  0.014
   3 C    6  5.999  1.996  0.304  0.575  0.570  0.413  0.858  0.336  0.329
                    0.575  0.003  0.006  0.006  0.014  0.014
   4 C    6  5.974  1.996  0.302  0.544  0.551  0.425  0.867  0.336  0.350
                    0.561  0.003  0.007  0.006  0.013  0.013
   5 C    6  5.949  1.996  0.309  0.554  0.568  0.435  0.838  0.330  0.351
                    0.522  0.004  0.006  0.008  0.013  0.013
   6 C    6  5.949  1.996  0.309  0.554  0.568  0.435  0.838  0.330  0.351
                    0.522  0.004  0.006  0.008  0.013  0.013
   7 C    6  5.998  1.996  0.304  0.569  0.574  0.419  0.856  0.328  0.340
                    0.570  0.003  0.006  0.006  0.013  0.014
   8 C    6  6.000  1.996  0.304  0.576  0.577  0.413  0.855  0.331  0.332
                    0.573  0.003  0.006  0.006  0.014  0.014
   9 C    6  5.998  1.996  0.304  0.569  0.574  0.419  0.856  0.328  0.340
                    0.570  0.003  0.006  0.006  0.013  0.014
  10 C    6  5.995  1.996  0.305  0.575  0.580  0.414  0.851  0.329  0.330
                    0.571  0.003  0.006  0.006  0.014  0.014
  11 C    6  5.992  1.996  0.305  0.576  0.575  0.411  0.854  0.333  0.335
                    0.563  0.003  0.007  0.006  0.013  0.014
  12 C    6  5.995  1.996  0.305  0.575  0.580  0.414  0.851  0.329  0.330
                    0.571  0.003  0.006  0.006  0.014  0.014
  13 C    6  6.001  1.996  0.304  0.574  0.574  0.416  0.855  0.329  0.332
                    0.577  0.003  0.006  0.006  0.014  0.014
  14 C    6  6.001  1.996  0.304  0.574  0.574  0.416  0.855  0.329  0.332
                    0.577  0.003  0.006  0.006  0.014  0.014
  15 C    6  5.991  1.996  0.306  0.573  0.577  0.419  0.846  0.335  0.330
                    0.564  0.003  0.006  0.006  0.014  0.014
  16 C    6  5.993  1.996  0.304  0.575  0.576  0.413  0.855  0.329  0.331
                    0.572  0.003  0.006  0.006  0.014  0.014
  17 C    6  5.993  1.996  0.304  0.575  0.576  0.413  0.855  0.329  0.331
                    0.572  0.003  0.006  0.006  0.014  0.014
  18 C    6  5.991  1.996  0.306  0.573  0.577  0.419  0.846  0.335  0.330
                    0.564  0.003  0.006  0.006  0.014  0.014
  19 C    6  5.981  1.996  0.305  0.565  0.559  0.429  0.852  0.346  0.325
                    0.563  0.003  0.006  0.006  0.013  0.013
  20 C    6  6.094  1.996  0.303  0.554  0.500  0.445  0.885  0.442  0.421
                    0.502  0.005  0.009  0.008  0.012  0.011
  21 C    6  5.992  1.996  0.303  0.566  0.559  0.420  0.861  0.347  0.333
                    0.564  0.003  0.006  0.006  0.013  0.013
  22 C    6  5.993  1.996  0.304  0.574  0.570  0.414  0.858  0.334  0.325
                    0.575  0.003  0.006  0.006  0.014  0.014
  23 C    6  5.992  1.996  0.303  0.566  0.559  0.420  0.861  0.347  0.333
                    0.564  0.003  0.006  0.006  0.013  0.013
  24 C    6  6.094  1.996  0.303  0.554  0.500  0.445  0.885  0.442  0.421
                    0.502  0.005  0.009  0.008  0.012  0.011
  25 C    6  6.094  1.996  0.303  0.554  0.500  0.445  0.885  0.441  0.421
                    0.502  0.005  0.009  0.008  0.012  0.011
  26 C    6  6.094  1.996  0.303  0.554  0.500  0.445  0.885  0.441  0.421
                    0.502  0.005  0.009  0.008  0.012  0.011
  27 C    6  5.992  1.996  0.303  0.566  0.559  0.420  0.861  0.347  0.333
                    0.564  0.003  0.006  0.006  0.013  0.013
  28 C    6  5.993  1.996  0.304  0.575  0.570  0.414  0.858  0.334  0.325
                    0.575  0.003  0.006  0.006  0.014  0.014
  29 C    6  5.992  1.996  0.303  0.566  0.559  0.420  0.861  0.347  0.333
                    0.564  0.003  0.006  0.006  0.013  0.013
  30 C    6  5.991  1.996  0.306  0.573  0.577  0.419  0.846  0.335  0.330
                    0.564  0.003  0.006  0.006  0.014  0.014
  31 C    6  5.982  1.996  0.305  0.565  0.559  0.429  0.852  0.346  0.325
                    0.563  0.003  0.006  0.006  0.013  0.013
  32 C    6  5.991  1.996  0.306  0.573  0.577  0.419  0.846  0.335  0.330
                    0.564  0.003  0.006  0.006  0.014  0.014
  33 C    6  5.993  1.996  0.304  0.575  0.576  0.413  0.855  0.329  0.331
                    0.572  0.003  0.006  0.006  0.014  0.014
  34 C    6  5.993  1.996  0.304  0.575  0.576  0.413  0.855  0.329  0.331
                    0.572  0.003  0.006  0.006  0.014  0.014
  35 C    6  5.995  1.996  0.305  0.575  0.580  0.414  0.851  0.329  0.330
                    0.571  0.003  0.006  0.006  0.014  0.014
  36 C    6  6.001  1.996  0.304  0.574  0.574  0.416  0.856  0.329  0.332
                    0.577  0.003  0.006  0.006  0.014  0.014
  37 C    6  6.001  1.996  0.304  0.574  0.574  0.416  0.856  0.329  0.332
                    0.577  0.003  0.006  0.006  0.014  0.014
  38 C    6  5.995  1.996  0.305  0.575  0.580  0.414  0.851  0.329  0.330
                    0.571  0.003  0.006  0.006  0.014  0.014
  39 C    6  5.992  1.996  0.305  0.576  0.575  0.411  0.854  0.333  0.335
                    0.563  0.003  0.007  0.006  0.013  0.014
  40 C    6  5.949  1.996  0.309  0.554  0.568  0.435  0.838  0.330  0.352
                    0.522  0.004  0.006  0.008  0.013  0.013
  41 C    6  5.998  1.996  0.304  0.569  0.574  0.419  0.856  0.328  0.340
                    0.570  0.003  0.006  0.006  0.013  0.014
  42 C    6  6.000  1.996  0.304  0.576  0.577  0.413  0.855  0.331  0.332
                    0.572  0.003  0.006  0.006  0.014  0.014
  43 C    6  5.998  1.996  0.304  0.569  0.574  0.419  0.856  0.328  0.340
                    0.570  0.003  0.006  0.006  0.013  0.014
  44 C    6  5.949  1.996  0.309  0.554  0.568  0.435  0.838  0.330  0.352
                    0.522  0.004  0.006  0.008  0.013  0.013
  45 C    6  5.974  1.996  0.302  0.544  0.551  0.425  0.867  0.336  0.350
                    0.560  0.003  0.007  0.006  0.013  0.013
  46 C    6  5.999  1.996  0.304  0.575  0.569  0.413  0.858  0.336  0.329
                    0.574  0.003  0.006  0.006  0.014  0.014
  47 C    6  5.999  1.996  0.304  0.575  0.569  0.413  0.858  0.336  0.329
                    0.574  0.003  0.006  0.006  0.014  0.014
  48 C    6  5.974  1.996  0.302  0.544  0.551  0.425  0.867  0.336  0.350
                    0.560  0.003  0.007  0.006  0.013  0.013
  49 S   16 16.064  2.000  1.997  1.992  1.987  1.988  1.348  1.286  0.808
                    0.938  0.482  0.611  0.185  0.349  0.016  0.007  0.041
                    0.021  0.009
  50 S   16 16.063  2.000  1.997  1.992  1.987  1.988  1.348  1.284  0.808
                    0.939  0.482  0.610  0.185  0.350  0.016  0.007  0.041
                    0.020  0.009

  ATOM    Z CHARGE  SHELL POPULATION

   1 C    6  5.974  1.996  1.822  2.114  0.041
   2 C    6  5.999  1.996  1.862  2.098  0.042
   3 C    6  5.999  1.996  1.862  2.098  0.042
   4 C    6  5.974  1.996  1.822  2.114  0.041
   5 C    6  5.949  1.996  1.866  2.042  0.045
   6 C    6  5.949  1.996  1.866  2.042  0.045
   7 C    6  5.998  1.996  1.866  2.093  0.042
   8 C    6  6.000  1.996  1.871  2.090  0.043
   9 C    6  5.998  1.996  1.866  2.093  0.042
  10 C    6  5.995  1.996  1.874  2.082  0.043
  11 C    6  5.992  1.996  1.867  2.086  0.043
  12 C    6  5.995  1.996  1.874  2.082  0.043
  13 C    6  6.001  1.996  1.869  2.093  0.042
  14 C    6  6.001  1.996  1.869  2.093  0.042
  15 C    6  5.991  1.996  1.875  2.076  0.043
  16 C    6  5.993  1.996  1.868  2.087  0.043
  17 C    6  5.993  1.996  1.868  2.087  0.043
  18 C    6  5.991  1.996  1.875  2.076  0.043
  19 C    6  5.981  1.996  1.858  2.086  0.042
  20 C    6  6.094  1.996  1.802  2.250  0.045
  21 C    6  5.992  1.996  1.848  2.106  0.042
  22 C    6  5.993  1.996  1.862  2.092  0.042
  23 C    6  5.992  1.996  1.848  2.106  0.042
  24 C    6  6.094  1.996  1.802  2.250  0.045
  25 C    6  6.094  1.996  1.803  2.249  0.045
  26 C    6  6.094  1.996  1.803  2.249  0.045
  27 C    6  5.992  1.996  1.848  2.106  0.042
  28 C    6  5.993  1.996  1.862  2.092  0.042
  29 C    6  5.992  1.996  1.848  2.106  0.042
  30 C    6  5.991  1.996  1.875  2.076  0.043
  31 C    6  5.982  1.996  1.858  2.086  0.042
  32 C    6  5.991  1.996  1.875  2.076  0.043
  33 C    6  5.993  1.996  1.868  2.087  0.043
  34 C    6  5.993  1.996  1.868  2.087  0.043
  35 C    6  5.995  1.996  1.874  2.082  0.043
  36 C    6  6.001  1.996  1.869  2.094  0.042
  37 C    6  6.001  1.996  1.869  2.094  0.042
  38 C    6  5.995  1.996  1.874  2.082  0.043
  39 C    6  5.992  1.996  1.867  2.086  0.043
  40 C    6  5.949  1.996  1.866  2.042  0.045
  41 C    6  5.998  1.996  1.866  2.093  0.042
  42 C    6  6.000  1.996  1.871  2.090  0.043
  43 C    6  5.998  1.996  1.866  2.093  0.042
  44 C    6  5.949  1.996  1.866  2.042  0.045
  45 C    6  5.974  1.996  1.822  2.114  0.041
  46 C    6  5.999  1.996  1.862  2.098  0.042
  47 C    6  5.999  1.996  1.862  2.098  0.042
  48 C    6  5.974  1.996  1.822  2.114  0.041
  49 S   16 16.064  2.000  7.964  4.380  1.628  0.093
  50 S   16 16.063  2.000  7.964  4.380  1.626  0.093

 OVERLAP POPULATION CONDENSED TO ATOMS FOR FIRST   6 NEIGHBORS

 ATOM A   1 C    ATOM B     CELL      R(AB)/AU R(AB)/ANG    OVPOP(AB)
                 26 C    (  0  0  0)     2.660     1.408     0.480
                 27 C    (  0  0  0)     2.726     1.442     0.456
                 45 C    (  0  0  0)     2.792     1.477     0.417
                  6 C    (  0  0  0)     4.684     2.479    -0.014
                  7 C    (  0  0  0)     4.702     2.488    -0.018
                  2 C    (  0  0  0)     4.705     2.490    -0.017

 ATOM A   2 C    ATOM B     CELL      R(AB)/AU R(AB)/ANG    OVPOP(AB)
                 46 C    (  0  0  0)     2.672     1.414     0.462
                 27 C    (  0  0  0)     2.686     1.421     0.461
                 28 C    (  0  0  0)     2.687     1.422     0.463
                  7 C    (  0  0  0)     4.615     2.442    -0.015
                 22 C    (  0  0  0)     4.632     2.451    -0.017
                 21 C    (  0  0  0)     4.636     2.453    -0.019

 ATOM A   5 C    ATOM B     CELL      R(AB)/AU R(AB)/ANG    OVPOP(AB)
                 30 C    (  0  0  0)     2.654     1.404     0.472
                 25 C    (  0  0  0)     2.659     1.407     0.475
                 31 C    (  0  0  0)     2.714     1.436     0.451
                  9 C    (  0  0  0)     4.579     2.423    -0.020
                 10 C    (  0  0  0)     4.586     2.427    -0.019
                 11 C    (  0  0  0)     4.625     2.447    -0.018

 ATOM A   7 C    ATOM B     CELL      R(AB)/AU R(AB)/ANG    OVPOP(AB)
                 32 C    (  0  0  0)     2.671     1.414     0.467
                 33 C    (  0  0  0)     2.680     1.418     0.461
                 27 C    (  0  0  0)     2.687     1.422     0.469
                  6 C    (  0  0  0)     4.579     2.423    -0.020
                  2 C    (  0  0  0)     4.615     2.442    -0.015
                  8 C    (  0  1  0)     4.630     2.450    -0.017

 ATOM A   8 C    ATOM B     CELL      R(AB)/AU R(AB)/ANG    OVPOP(AB)
                 33 C    (  0 -1  0)     2.671     1.414     0.464
                 28 C    (  0 -1  0)     2.673     1.415     0.466
                  7 C    (  0 -1  0)     4.630     2.450    -0.017
                 13 C    (  0  0  0)     4.630     2.450    -0.018
                  2 C    (  0 -1  0)     4.637     2.454    -0.017
                 39 C    (  0  0  0)     5.352     2.832    -0.009

 ATOM A  10 C    ATOM B     CELL      R(AB)/AU R(AB)/ANG    OVPOP(AB)
                 35 C    (  0  0  0)     2.659     1.407     0.467
                 36 C    (  0  0  0)     2.670     1.413     0.468
                 30 C    (  0  0  0)     2.673     1.415     0.459
                  5 C    (  0  0  0)     4.586     2.427    -0.019
                 15 C    (  0  0  0)     4.597     2.433    -0.019
                 14 C    (  0  0  0)     4.613     2.441    -0.019

 ATOM A  11 C    ATOM B     CELL      R(AB)/AU R(AB)/ANG    OVPOP(AB)
                 31 C    (  0  0  0)     2.655     1.405     0.477
                 36 C    (  0  0  0)     2.684     1.420     0.456
                 10 C    (  0  0  0)     4.622     2.446    -0.017
                  5 C    (  0  0  0)     4.625     2.447    -0.018
                 16 C    (  0  0  0)     4.638     2.454    -0.018
                 30 C    (  0  0  0)     5.350     2.831    -0.009

 ATOM A  13 C    ATOM B     CELL      R(AB)/AU R(AB)/ANG    OVPOP(AB)
                 38 C    (  0 -1  0)     2.670     1.413     0.468
                 33 C    (  0 -1  0)     2.674     1.415     0.470
                 39 C    (  0  0  0)     2.684     1.420     0.456
                 12 C    (  0 -1  0)     4.613     2.441    -0.019
                 19 C    (  0  0  0)     4.627     2.448    -0.018
                  8 C    (  0  0  0)     4.630     2.450    -0.018

 ATOM A  15 C    ATOM B     CELL      R(AB)/AU R(AB)/ANG    OVPOP(AB)
                 40 C    (  1  0  0)     2.654     1.404     0.472
                 41 C    (  1  0  0)     2.671     1.414     0.467
                 35 C    (  0  0  0)     2.673     1.415     0.459
                 20 C    (  1  0  0)     4.558     2.412    -0.022
                 10 C    (  0  0  0)     4.597     2.433    -0.019
                 16 C    (  0  0  0)     4.601     2.435    -0.017

 ATOM A  16 C    ATOM B     CELL      R(AB)/AU R(AB)/ANG    OVPOP(AB)
                 42 C    (  1  0  0)     2.672     1.414     0.464
                 36 C    (  0  0  0)     2.674     1.415     0.470
                 41 C    (  1  0  0)     2.680     1.418     0.460
                 15 C    (  0  0  0)     4.601     2.435    -0.017
                 17 C    (  0  0  0)     4.628     2.449    -0.018
                 22 C    (  1  0  0)     4.629     2.449    -0.019

 ATOM A  19 C    ATOM B     CELL      R(AB)/AU R(AB)/ANG    OVPOP(AB)
                 39 C    (  0  0  0)     2.655     1.405     0.477
                 40 C    (  1  0  0)     2.714     1.436     0.451
                 13 C    (  0  0  0)     4.627     2.448    -0.018
                 15 C    (  0  0  0)     4.658     2.465    -0.014
                 20 C    (  1  0  0)     4.681     2.477    -0.022
                 49 S    (  1  0  0)     5.314     2.812    -0.006

 ATOM A  20 C    ATOM B     CELL      R(AB)/AU R(AB)/ANG    OVPOP(AB)
                 40 C    (  0  0  0)     2.659     1.407     0.475
                 45 C    (  0  0  0)     2.660     1.408     0.480
                 49 S    (  0  0  0)     3.335     1.765     0.308
                 21 C    (  0  0  0)     4.530     2.397    -0.022
                 15 C    ( -1  0  0)     4.558     2.412    -0.022
                 19 C    ( -1  0  0)     4.681     2.477    -0.022

 ATOM A  21 C    ATOM B     CELL      R(AB)/AU R(AB)/ANG    OVPOP(AB)
                 46 C    (  0  0  0)     2.686     1.421     0.461
                 41 C    (  0  0  0)     2.687     1.422     0.469
                 45 C    (  0  0  0)     2.726     1.443     0.456
                 20 C    (  0  0  0)     4.530     2.397    -0.022
                  2 C    (  0  0  0)     4.636     2.453    -0.019
                 15 C    ( -1  0  0)     4.655     2.463    -0.018

 ATOM A  22 C    ATOM B     CELL      R(AB)/AU R(AB)/ANG    OVPOP(AB)
                 42 C    (  0  0  0)     2.673     1.415     0.466
                 46 C    (  0  0  0)     2.687     1.422     0.463
                 16 C    ( -1  0  0)     4.629     2.449    -0.019
                  2 C    (  0  0  0)     4.632     2.451    -0.017
                 21 C    (  0  0  0)     4.666     2.469    -0.019
                 28 C    (  0  0  0)     5.328     2.819    -0.009

 ATOM A  25 C    ATOM B     CELL      R(AB)/AU R(AB)/ANG    OVPOP(AB)
                  5 C    (  0  0  0)     2.659     1.407     0.475
                  4 C    (  0  0  0)     2.660     1.408     0.480
                 50 S    (  0  0  0)     3.333     1.764     0.309
                 29 C    (  0  0  0)     4.529     2.396    -0.022
                 30 C    (  0  0  0)     4.557     2.411    -0.022
                 31 C    (  0  0  0)     4.681     2.477    -0.022

 ATOM A  27 C    ATOM B     CELL      R(AB)/AU R(AB)/ANG    OVPOP(AB)
                  2 C    (  0  0  0)     2.686     1.421     0.461
                  7 C    (  0  0  0)     2.687     1.422     0.469
                  1 C    (  0  0  0)     2.726     1.442     0.456
                 26 C    (  0  0  0)     4.529     2.396    -0.022
                 46 C    (  0  0  0)     4.636     2.453    -0.019
                 32 C    (  0  0  0)     4.655     2.463    -0.018

 ATOM A  28 C    ATOM B     CELL      R(AB)/AU R(AB)/ANG    OVPOP(AB)
                  8 C    (  0  1  0)     2.673     1.415     0.466
                  2 C    (  0  0  0)     2.687     1.422     0.463
                 33 C    (  0  0  0)     4.629     2.449    -0.019
                 46 C    (  0  0  0)     4.632     2.451    -0.017
                 27 C    (  0  0  0)     4.666     2.469    -0.019
                 22 C    (  0  0  0)     5.328     2.819    -0.009

 ATOM A  30 C    ATOM B     CELL      R(AB)/AU R(AB)/ANG    OVPOP(AB)
                  5 C    (  0  0  0)     2.654     1.404     0.472
                  9 C    (  0  0  0)     2.671     1.414     0.467
                 10 C    (  0  0  0)     2.673     1.415     0.459
                 25 C    (  0  0  0)     4.557     2.411    -0.022
                 35 C    (  0  0  0)     4.597     2.433    -0.019
                 34 C    (  0  0  0)     4.601     2.435    -0.017

 ATOM A  31 C    ATOM B     CELL      R(AB)/AU R(AB)/ANG    OVPOP(AB)
                 11 C    (  0  0  0)     2.655     1.405     0.477
                  5 C    (  0  0  0)     2.714     1.436     0.451
                 36 C    (  0  0  0)     4.627     2.448    -0.018
                 30 C    (  0  0  0)     4.658     2.465    -0.014
                 25 C    (  0  0  0)     4.681     2.477    -0.022
                 50 S    (  0  0  0)     5.318     2.814    -0.006

 ATOM A  33 C    ATOM B     CELL      R(AB)/AU R(AB)/ANG    OVPOP(AB)
                  8 C    (  0  1  0)     2.671     1.414     0.464
                 13 C    (  0  1  0)     2.674     1.415     0.470
                  7 C    (  0  0  0)     2.680     1.418     0.461
                 32 C    (  0  0  0)     4.601     2.435    -0.017
                 34 C    (  0  1  0)     4.627     2.449    -0.018
                 28 C    (  0  0  0)     4.629     2.449    -0.019

 ATOM A  35 C    ATOM B     CELL      R(AB)/AU R(AB)/ANG    OVPOP(AB)
                 10 C    (  0  0  0)     2.659     1.407     0.467
                 14 C    (  0  0  0)     2.670     1.413     0.468
                 15 C    (  0  0  0)     2.673     1.415     0.459
                 40 C    (  1  0  0)     4.586     2.427    -0.019
                 30 C    (  0  0  0)     4.597     2.433    -0.019
                 36 C    (  0  0  0)     4.613     2.441    -0.019

 ATOM A  36 C    ATOM B     CELL      R(AB)/AU R(AB)/ANG    OVPOP(AB)
                 10 C    (  0  0  0)     2.670     1.413     0.468
                 16 C    (  0  0  0)     2.674     1.415     0.470
                 11 C    (  0  0  0)     2.684     1.420     0.456
                 35 C    (  0  0  0)     4.613     2.441    -0.019
                 31 C    (  0  0  0)     4.627     2.448    -0.018
                 42 C    (  1  0  0)     4.630     2.450    -0.018

 ATOM A  39 C    ATOM B     CELL      R(AB)/AU R(AB)/ANG    OVPOP(AB)
                 19 C    (  0  0  0)     2.655     1.405     0.477
                 13 C    (  0  0  0)     2.684     1.420     0.456
                 35 C    (  0  0  0)     4.622     2.446    -0.017
                 40 C    (  1  0  0)     4.625     2.447    -0.018
                 33 C    (  0 -1  0)     4.638     2.454    -0.018
                 15 C    (  0  0  0)     5.350     2.831    -0.009

 ATOM A  40 C    ATOM B     CELL      R(AB)/AU R(AB)/ANG    OVPOP(AB)
                 15 C    ( -1  0  0)     2.654     1.404     0.472
                 20 C    (  0  0  0)     2.659     1.407     0.475
                 19 C    ( -1  0  0)     2.714     1.436     0.451
                 41 C    (  0  0  0)     4.579     2.423    -0.020
                 35 C    ( -1  0  0)     4.586     2.427    -0.019
                 39 C    ( -1  0  0)     4.625     2.447    -0.018

 ATOM A  41 C    ATOM B     CELL      R(AB)/AU R(AB)/ANG    OVPOP(AB)
                 15 C    ( -1  0  0)     2.671     1.414     0.467
                 16 C    ( -1  0  0)     2.680     1.418     0.460
                 21 C    (  0  0  0)     2.687     1.422     0.469
                 40 C    (  0  0  0)     4.579     2.423    -0.020
                 46 C    (  0  0  0)     4.614     2.442    -0.015
                 42 C    (  0  0  0)     4.631     2.450    -0.017

 ATOM A  42 C    ATOM B     CELL      R(AB)/AU R(AB)/ANG    OVPOP(AB)
                 16 C    ( -1  0  0)     2.672     1.414     0.464
                 22 C    (  0  0  0)     2.673     1.415     0.466
                 36 C    ( -1  0  0)     4.630     2.450    -0.018
                 41 C    (  0  0  0)     4.631     2.450    -0.017
                 46 C    (  0  0  0)     4.638     2.454    -0.017
                 11 C    ( -1  0  0)     5.352     2.832    -0.009

 ATOM A  45 C    ATOM B     CELL      R(AB)/AU R(AB)/ANG    OVPOP(AB)
                 20 C    (  0  0  0)     2.660     1.408     0.480
                 21 C    (  0  0  0)     2.726     1.443     0.456
                  1 C    (  0  0  0)     2.792     1.477     0.417
                 40 C    (  0  0  0)     4.684     2.479    -0.014
                 41 C    (  0  0  0)     4.703     2.489    -0.018
                 46 C    (  0  0  0)     4.706     2.490    -0.017

 ATOM A  46 C    ATOM B     CELL      R(AB)/AU R(AB)/ANG    OVPOP(AB)
                  2 C    (  0  0  0)     2.672     1.414     0.462
                 21 C    (  0  0  0)     2.686     1.421     0.461
                 22 C    (  0  0  0)     2.687     1.422     0.463
                 41 C    (  0  0  0)     4.614     2.442    -0.015
                 28 C    (  0  0  0)     4.632     2.451    -0.017
                 27 C    (  0  0  0)     4.636     2.453    -0.019

 ATOM A  49 S    ATOM B     CELL      R(AB)/AU R(AB)/ANG    OVPOP(AB)
                 20 C    (  0  0  0)     3.335     1.765     0.308
                 40 C    (  0  0  0)     4.859     2.571    -0.057
                 50 S    (  0  0  0)     5.226     2.765    -0.275
                 19 C    ( -1  0  0)     5.314     2.812    -0.006
                 45 C    (  0  0  0)     5.396     2.855    -0.021
                 25 C    (  0  0  0)     6.530     3.455    -0.005

 ATOM A  50 S    ATOM B     CELL      R(AB)/AU R(AB)/ANG    OVPOP(AB)
                 25 C    (  0  0  0)     3.333     1.764     0.309
                  5 C    (  0  0  0)     4.861     2.572    -0.056
                 49 S    (  0  0  0)     5.226     2.765    -0.275
                 31 C    (  0  0  0)     5.318     2.814    -0.006
                  1 C    (  0  0  0)     5.390     2.852    -0.021
                 20 C    (  0  0  0)     6.516     3.448    -0.005
 TTTTTTTTTTTTTTTTTTTTTTTTTTTTTT PPAN        TELAPSE      283.07 TCPU      278.00
 ENDPROP   
 TTTTTTTTTTTTTTTTTTTTTTTTTTTTTT END         TELAPSE      283.07 TCPU      278.00
 EEEEEEEEEE TERMINATION  DATE 13 05 2024 TIME 16:49:48.3
Note: The following floating-point exceptions are signalling: IEEE_UNDERFLOW_FLAG IEEE_DENORMAL
Note: The following floating-point exceptions are signalling: IEEE_UNDERFLOW_FLAG IEEE_DENORMAL
Note: The following floating-point exceptions are signalling: IEEE_UNDERFLOW_FLAG IEEE_DENORMAL
Note: The following floating-point exceptions are signalling: IEEE_UNDERFLOW_FLAG IEEE_DENORMAL
Note: The following floating-point exceptions are signalling: IEEE_UNDERFLOW_FLAG IEEE_DENORMAL
Note: The following floating-point exceptions are signalling: IEEE_UNDERFLOW_FLAG IEEE_DENORMAL
Note: The following floating-point exceptions are signalling: IEEE_UNDERFLOW_FLAG IEEE_DENORMAL
Note: The following floating-point exceptions are signalling: IEEE_UNDERFLOW_FLAG IEEE_DENORMAL
Note: The following floating-point exceptions are signalling: IEEE_UNDERFLOW_FLAG IEEE_DENORMAL
Note: The following floating-point exceptions are signalling: IEEE_UNDERFLOW_FLAG IEEE_DENORMAL
Note: The following floating-point exceptions are signalling: IEEE_UNDERFLOW_FLAG IEEE_DENORMAL
Note: The following floating-point exceptions are signalling: IEEE_UNDERFLOW_FLAG IEEE_DENORMAL
Note: The following floating-point exceptions are signalling: IEEE_UNDERFLOW_FLAG IEEE_DENORMAL
Note: The following floating-point exceptions are signalling: IEEE_UNDERFLOW_FLAG IEEE_DENORMAL
Note: The following floating-point exceptions are signalling: IEEE_UNDERFLOW_FLAG IEEE_DENORMAL
Note: The following floating-point exceptions are signalling: IEEE_UNDERFLOW_FLAG IEEE_DENORMAL
Note: The following floating-point exceptions are signalling: IEEE_UNDERFLOW_FLAG IEEE_DENORMAL
Note: The following floating-point exceptions are signalling: IEEE_UNDERFLOW_FLAG IEEE_DENORMAL
Note: The following floating-point exceptions are signalling: IEEE_UNDERFLOW_FLAG IEEE_DENORMAL
Note: The following floating-point exceptions are signalling: IEEE_UNDERFLOW_FLAG IEEE_DENORMAL
Note: The following floating-point exceptions are signalling: IEEE_UNDERFLOW_FLAG IEEE_DENORMAL
Note: The following floating-point exceptions are signalling: IEEE_UNDERFLOW_FLAG IEEE_DENORMAL
Note: The following floating-point exceptions are signalling: IEEE_UNDERFLOW_FLAG IEEE_DENORMAL
Note: The following floating-point exceptions are signalling: IEEE_UNDERFLOW_FLAG IEEE_DENORMAL
Note: The following floating-point exceptions are signalling: IEEE_UNDERFLOW_FLAG IEEE_DENORMAL
Note: The following floating-point exceptions are signalling: IEEE_UNDERFLOW_FLAG IEEE_DENORMAL
Note: The following floating-point exceptions are signalling: IEEE_UNDERFLOW_FLAG IEEE_DENORMAL
Note: The following floating-point exceptions are signalling: IEEE_UNDERFLOW_FLAG IEEE_DENORMAL
Note: The following floating-point exceptions are signalling: IEEE_UNDERFLOW_FLAG IEEE_DENORMAL
Note: The following floating-point exceptions are signalling: IEEE_UNDERFLOW_FLAG IEEE_DENORMAL
Note: The following floating-point exceptions are signalling: IEEE_UNDERFLOW_FLAG IEEE_DENORMAL
Note: The following floating-point exceptions are signalling: IEEE_UNDERFLOW_FLAG IEEE_DENORMAL
Note: The following floating-point exceptions are signalling: IEEE_UNDERFLOW_FLAG IEEE_DENORMAL
Note: The following floating-point exceptions are signalling: IEEE_UNDERFLOW_FLAG IEEE_DENORMAL
Note: The following floating-point exceptions are signalling: IEEE_UNDERFLOW_FLAG IEEE_DENORMAL
Note: The following floating-point exceptions are signalling: IEEE_UNDERFLOW_FLAG IEEE_DENORMAL
Note: The following floating-point exceptions are signalling: IEEE_UNDERFLOW_FLAG IEEE_DENORMAL
Note: The following floating-point exceptions are signalling: IEEE_UNDERFLOW_FLAG IEEE_DENORMAL
Note: The following floating-point exceptions are signalling: IEEE_UNDERFLOW_FLAG IEEE_DENORMAL
Note: The following floating-point exceptions are signalling: IEEE_UNDERFLOW_FLAG IEEE_DENORMAL
Note: The following floating-point exceptions are signalling: IEEE_UNDERFLOW_FLAG IEEE_DENORMAL
Note: The following floating-point exceptions are signalling: IEEE_UNDERFLOW_FLAG IEEE_DENORMAL
Note: The following floating-point exceptions are signalling: IEEE_UNDERFLOW_FLAG IEEE_DENORMAL
Note: The following floating-point exceptions are signalling: IEEE_UNDERFLOW_FLAG IEEE_DENORMAL
Note: The following floating-point exceptions are signalling: IEEE_UNDERFLOW_FLAG IEEE_DENORMAL
Note: The following floating-point exceptions are signalling: IEEE_UNDERFLOW_FLAG IEEE_DENORMAL
Note: The following floating-point exceptions are signalling: IEEE_UNDERFLOW_FLAG IEEE_DENORMAL
Note: The following floating-point exceptions are signalling: IEEE_UNDERFLOW_FLAG IEEE_DENORMAL
Note: The following floating-point exceptions are signalling: IEEE_UNDERFLOW_FLAG IEEE_DENORMAL
Note: The following floating-point exceptions are signalling: IEEE_UNDERFLOW_FLAG IEEE_DENORMAL
Note: The following floating-point exceptions are signalling: IEEE_UNDERFLOW_FLAG IEEE_DENORMAL
Note: The following floating-point exceptions are signalling: IEEE_UNDERFLOW_FLAG IEEE_DENORMAL
Note: The following floating-point exceptions are signalling: IEEE_UNDERFLOW_FLAG IEEE_DENORMAL
Note: The following floating-point exceptions are signalling: IEEE_UNDERFLOW_FLAG IEEE_DENORMAL
Note: The following floating-point exceptions are signalling: IEEE_UNDERFLOW_FLAG IEEE_DENORMAL
Note: The following floating-point exceptions are signalling: IEEE_UNDERFLOW_FLAG IEEE_DENORMAL
Note: The following floating-point exceptions are signalling: IEEE_UNDERFLOW_FLAG IEEE_DENORMAL
Note: The following floating-point exceptions are signalling: IEEE_UNDERFLOW_FLAG IEEE_DENORMAL
Note: The following floating-point exceptions are signalling: IEEE_UNDERFLOW_FLAG IEEE_DENORMAL
Note: The following floating-point exceptions are signalling: IEEE_UNDERFLOW_FLAG IEEE_DENORMAL
Note: The following floating-point exceptions are signalling: IEEE_UNDERFLOW_FLAG IEEE_DENORMAL
Note: The following floating-point exceptions are signalling: IEEE_UNDERFLOW_FLAG IEEE_DENORMAL
Note: The following floating-point exceptions are signalling: IEEE_UNDERFLOW_FLAG IEEE_DENORMAL
Note: The following floating-point exceptions are signalling: IEEE_UNDERFLOW_FLAG IEEE_DENORMAL

DATE END   : Mon 13 May 16:49:49 BST 2024
Script run_exec done.
============================================

============================================
Post Processing Report
--------------------------------------------
Begining of post processing : Mon 13 May 16:49:49 BST 2024
List of saved files from Node 0
  TEMPORARY            SAVED
  fort.9               5x5DV-chg.f9                                          2381220  May 13 16:45
  PPAN.DAT             5x5DV-chg.PPAN                                        13094    May 13 16:49
  SIGMA.DAT            5x5DV-chg.SIGMA                                       61937    May 13 16:49
  SEEBECK.DAT          5x5DV-chg.SEEBECK                                     72989    May 13 16:49
  SIGMAS.DAT           5x5DV-chg.SIGMAS                                      61963    May 13 16:49
  KAPPA.DAT            5x5DV-chg.KAPPA                                       61913    May 13 16:49
  TDF.DAT              5x5DV-chg.TDF                                         227993   May 13 16:49
--------------------------------------------

Temporary Directory Disk Info
--------------------------------------------
  Temporary directory      : /gpfs/home/hz1420/tmp/5x5DV-chg_70089.pbs-6.hpc.ic.ac

  Disk usage (df -h)
Filesystem      Size  Used Avail Use% Mounted on
gpfs            2.1P   96T  2.0P   5% /gpfs

  Usage by folders (du -m)
26663	/gpfs/home/hz1420/tmp/5x5DV-chg_70089.pbs-6.hpc.ic.ac

  Detailed file list of Node 0(ls -l .)
    see /gpfs/home/hz1420/Graphene-Sulfur/defect_density/5x5-DV/5x5DV-chg.log file
--------------------------------------------

End of post processing : Mon 13 May 16:49:49 BST 2024
Script post_proc done.
===========================================
