Running Job Report
--------------------------------------------
DATE START : Thu  4 Jul 23:55:03 BST 2024

Pre-Calc Summary
--------------------------------------------
  date:                Thu  4 Jul 23:55:03 BST 2024
  hostname:            hx1-c08-7-3
  system:              Linux hx1-c08-7-3 4.18.0-372.32.1.el8_6.x86_64 #1 SMP Fri Oct 7 12:35:10 EDT 2022 x86_64 x86_64 x86_64 GNU/Linux
  user:                hz1420
  input:               /gpfs/home/hz1420/elastic/elastic2D_graphene.d12
  output:              /gpfs/home/hz1420/elastic/elastic2D_graphene.out
  temporary directory: /gpfs/home/hz1420/tmp/elastic2D_graphene_86939
  executable script:   /gpfs/home/hz1420/GitHub/HPC-job-submission/Imperial-HPC-Job-Submission/run_exec
  executable dir:      /gpfs/home/hz1420/app/CRYSTAL23__foss2023a/bin
  mpi + exe command:    mpiexec -np 64 Pcrystal
-------------------------------------------

Find input data: /gpfs/home/hz1420/elastic/elastic2D_graphene.d12
All files are synchonised.

Job Ready to Go
-------------------------------------------
  Job name       : elastic2D_graphene
  ID             : 86939.pbs-6
  Command        : mpiexec -np 64 Pcrystal >> /gpfs/home/hz1420/elastic/elastic2D_graphene.out 2>&1
  Temporary dir  : /gpfs/home/hz1420/tmp/elastic2D_graphene_86939
  List of files  : total 1
-rw-r--r-- 1 hz1420 hpc-nmh  484 Jul  4 23:55 INPUT
-rw-r--r-- 1 hz1420 hpc-nmh 7915 Jul  4 23:55 Job_script_86939
  Input script   :
2D elastic properties
SLAB
77
2.45205264 
1
6 0.33333333 0.66666667 0.0
ELASTCON
PREOPTGEOM
END
ENDGEOM
6 4
0 0 6 2.0 1.0
 3048.0    0.001826
  456.4    0.01406
  103.7    0.06876
   29.23   0.2304
    9.349  0.4685
    3.189  0.3628
0 1 2 4.0 1.0
    3.665 -0.3959 0.2365
    0.7705 1.216  0.8606
0 1 1 0.0 1.0
    0.26   1.0    1.0
0 3 1 0.0 1.0
    0.8    1.0
99 0
ENDBS
DFT
HSE06
XXLGRID
ENDDFT
TOLINTEG
7 7 7 7 14
SHRINK
3 9
SMEAR
0.0001
TOLDEE
11
FMIXING
30
MAXCYCLE
200
ENDSCF
-------------------------------------------

          64 PROCESSORS WORKING
 Default number of threads is:            1

         
 *******************************************************************************
 *                                                                             *
 *                               CRYSTAL22                                     *
 *                      public : 1.0.1 - Jul 29th, 2021                        *
 *                       HTTP://WWW.CRYSTAL.UNITO.IT                           *
 *                                                                             *
 *                              MAIN AUTHORS                                   *
 *                                                                             *
 *  R. DOVESI(1,11), V.R. SAUNDERS(2), C. ROETTI(1,11), R. ORLANDO(1,11),      *
 *  C.M. ZICOVICH-WILSON(1,3), F. PASCALE(4), B. CIVALLERI(1,11),              *
 *  K. DOLL(5), N.M. HARRISON(6), I.J. BUSH(7), Ph. D'ARCO(8),                 *
 *  M. LLUNELL(9), M. CAUSA'(10), Y. NOEL(8), L. MASCHIO(1,11), A. ERBA(1,11)  *
 *  M. RE'RAT(14), S. CASASSA(1,11), B.G. SEARLE(2), J.K. DESMARAIS(1)         *
 *                                                                             *
 *        CONTRIBUTIONS TO THE CODE HAVE ALSO BEEN GIVEN BY                    *
 *                                                                             *
 *  M. FERRABONE(1,11), M. DE LA PIERRE(1,11), M. FERRERO(1,11),               *
 *  J. BAIMA(1,11), E. ALBANESE(1,11), M.F. PEINTINGER(12), R. BAST(13),       *
 *  B. KIRTMAN(15), V. LACIVITA(1,11), R. DEMICHELIS(1,16)                     *
 *  G. BRANDEBURG(17), S. SALUSTRO(1,11), G. SANSONE(1,11)                     *
 *  M.T. RUGGIERO(18), L.E. DAGA(1), L. DONA'(1), A. COSSARD(1)                *
 *                                                                             *
 * (1) THEORETICAL CHEMISTRY GROUP - UNIVERSITA' DI TORINO - TORINO (ITALY)    *
 * (2) SCIENTIFIC COMPUTING DEPARTMENT - STFC DARESBURY (UK)                   *
 * (3) UNIVERSIDAD AUTONOMA DEL ESTADO DE MORELOS - CUERNAVACA (MEXICO)        *
 * (4) UNIVERSITE' DE LORRAINE - NANCY (FRANCE)                                *
 * (5) UNIVERSITAET STUTTGART- STUTTGART (GERMANY)                             *
 * (6) IMPERIAL COLLEGE - LONDON (UK)                                          *
 * (7) SCIENTIFIC COMPUTING DEPARTMENT - STFC RAL (UK)                         *
 * (8) UPMC - SORBONNE UNIVERSITES - PARIS (FRANCE)                            *
 * (9) UNIVERSIDAD DE BARCELONA - BARCELONA (SPAIN)                            *
 *(10) UNIVERSITA' DI NAPOLI "FEDERICO II" - NAPOLI (ITALY)                    *
 *(11) NIS - NANOSTRUCTURED INTERFACES AND SURFACES - TORINO (ITALY)           *
 *(12) MPI FUER CHEMISCHE ENERGIEKONVERSION - MUELHEIM AN DER RUHR (GERMANY)   *
 *(13) UNIVERSITY OF TROMSO - TROMSO (NORWAY)                                  *
 *(14) UNIVERSITE' DE PAU ET DES PAYS DE L'ADOUR - PAU (FRANCE)                *
 *(15) UNIVERSITY OF CALIFORNIA SANTA BARBARA - SANTA BARBARA (USA)            *
 *(16) CURTIN UNIVERSITY - PERTH (AUSTRALIA)                                   *
 *(17) UNIVERSITY COLLEGE LONDON - LONDON (UK)                                 *
 *(18) UNIVERSITY OF VERMONT - BURLINGTON (USA)                                *
 *                                                                             *
 *******************************************************************************
 EEEEEEEEEE STARTING  DATE 04 07 2024 TIME 23:55:06.2
 2D elastic properties                                                           

 SLAB CALCULATION
 SYSTEM AND LATTICE                   :  HEXAGONAL   
 TWO-SIDED PLANE GROUP N. 77          :  P 6 M M         
 CORRESPONDING SPACE GROUP N. 183

 LATTICE PARAMETERS  (ANGSTROMS AND DEGREES) - CONVENTIONAL CELL
           A              B            GAMMA
        2.45205        2.45205      120.00000


 NUMBER OF IRREDUCIBLE ATOMS IN THE CONVENTIONAL CELL:    1

 INPUT COORDINATES

 ATOM AT. N.              COORDINATES
   1   6     3.333333300000E-01  6.666666700000E-01  0.000000000000E+00

 *******************************************************************************

 << INFORMATION >>: FROM NOW ON, ALL COORDINATES REFER TO THE PRIMITIVE CELL

 *******************************************************************************

 LATTICE PARAMETERS  (ANGSTROMS AND DEGREES) - PRIMITIVE CELL
       A          B          C        ALPHA      BETA     GAMMA        VOLUME
    2.45205    2.45205  500.00000    90.00000  90.00000 120.00000      5.207032

 COORDINATES OF THE EQUIVALENT ATOMS 
 (X AND Y IN FRACTIONARY UNITS, Z IN ANGSTROMS)

 N. ATOM EQUIV AT. N.          X                  Y                  Z

   1   1   1    6 C     3.33333330000E-01 -3.33333330000E-01  0.00000000000E+00
   2   1   2    6 C    -3.33333330000E-01  3.33333330000E-01  0.00000000000E+00

 NUMBER OF SYMMETRY OPERATORS         :   12
 *******************************************************************************
 * GEOMETRY EDITING - INPUT COORDINATES ARE GIVEN IN ANGSTROM         
 *******************************************************************************

 GEOMETRY NOW FULLY CONSISTENT WITH THE GROUP
 INFORMATION **** NEW DEFAULT **** FINALRUN 4 FOR GEOMETRY OPTIMIZATIONS
 INFORMATION **** NEW DEFAULT **** OPTGEOM OPTIMIZES BOTH ATOMIC COORDINATES AND CELL PARAMETERS
 INFORMATION **** NEW DEFAULT **** TOL. ON ATOMIC DISP TO REDEFINE REF. GEOMETRY: 0.8 Angs
 INFORMATION **** NEW DEFAULT **** N POINTS TO REDEFINE REF. GEOMETRY: N OF OPT DEGS OF FREEDOM
 INFORMATION **** NEW DEFAULT **** TOL. ON ENERGY TO REDEFINE REF. GEOMETRY: 10**-3*(5*N. ATOMS)

 IMPORTANT INFORMATION:
 THE COORDINATE SYSTEM ADOPTED IN THE OPTIMIZATION IS NOT IN
 GENERAL HOMOGENEOUS UNITS. FOR THIS REASON THE GRADIENT AND 
 HESSIAN MATRIX IN TERMS OF THIS SYSTEM ARE GIVEN WITHOUT
 UNITS. FOR MORE DETAILS SEE THE MANUAL.

 INITIAL TRUST RADIUS         0.50000 MAXIMUM TRUST RADIUS               4.00000
 MAXIMUM GRADIENT COMPONENT   0.00045 MAXIMUM DISPLACEMENT COMPONENT     0.00180
 R.M.S. OF GRADIENT COMPONENT 0.00030 R.M.S. OF DISPLACEMENT COMPONENTS  0.00120
 THRESHOLD ON ENERGY CHANGE 0.100E-06 EXTRAPOLATING POLYNOMIAL ORDER           2
 MAXIMUM ALLOWED NUMBER OF STEPS   -1 SORTING OF ENERGY POINTS:               NO
 ANALYTICAL  GRADIENT                 HESSIAN UPDATING                      BFGS
 STEP SIZE NUMERICAL GRADIENT 0.00100
 INITIAL HESSIAN MATRIX: SCHLEGEL MODEL 2
 *******************************************************************************


 ELAELAELAELAELAELAELAELAELAELAELAELAELAELAELAELAELAELAELAELAELAELAELAELAELAELA

                       ELASTIC CALCULATION

 INFORMATION **** TOLDEX ****  CONVERGENCE CRITERION FOR RMS DISPLACEMENT MODIFIED  6.200000E-04
 INFORMATION **** TOLDEG **** MODIFY CONVERGENCE CRITERION FOR RMS GRADIENT  3.000000E-04
 INFORMATION **** TOLDEE **** CONVERGENCE CRITERION FOR ENERGY MODIFIED: 10**-           8
 OPTIMIZATION PERFORMED BEFORE ELASTCON CALCULATION
 *******************************************************************************

 GCALCO - MAX INDICES DIRECT LATTICE VECTOR    83    83     0
 NO.OF VECTORS CREATED 6999 STARS  503 RMAX   203.72512 BOHR

 GEOMETRY FOR WAVE FUNCTION - DIMENSIONALITY OF THE SYSTEM    2
 (NON PERIODIC DIRECTION: LATTICE PARAMETER FORMALLY SET TO 500)
 *******************************************************************************
 LATTICE PARAMETERS (ANGSTROMS AND DEGREES) - BOHR = 0.5291772083 ANGSTROM
 PRIMITIVE CELL
         A              B              C           ALPHA      BETA       GAMMA 
     2.45205264     2.45205264   500.00000000    90.000000  90.000000 120.000000
 *******************************************************************************
 ATOMS IN THE ASYMMETRIC UNIT    1 - ATOMS IN THE UNIT CELL:    2
     ATOM                 X/A                 Y/B             Z(ANGSTROM)
 *******************************************************************************
      1 T   6 C     3.333333333333E-01 -3.333333333333E-01  0.000000000000E+00
      2 F   6 C    -3.333333333333E-01  3.333333333333E-01  0.000000000000E+00

 T = ATOM BELONGING TO THE ASYMMETRIC UNIT

 ****   12 SYMMOPS - TRANSLATORS IN FRACTIONAL UNITS
 **** MATRICES AND TRANSLATORS IN THE CRYSTALLOGRAPHIC REFERENCE FRAME
   V INV                    ROTATION MATRICES                   TRANSLATORS
   1   1  1.00  0.00  0.00  0.00  1.00  0.00  0.00  0.00  1.00  0.00  0.00  0.00
   2   2 -1.00  0.00  0.00  0.00 -1.00  0.00  0.00  0.00  1.00  0.00  0.00  0.00
   3   4  0.00 -1.00  0.00  1.00 -1.00  0.00  0.00  0.00  1.00  0.00  0.00  0.00
   4   3 -1.00  1.00  0.00 -1.00  0.00  0.00  0.00  0.00  1.00  0.00  0.00  0.00
   5   6  1.00 -1.00  0.00  1.00  0.00  0.00  0.00  0.00  1.00  0.00  0.00  0.00
   6   5  0.00  1.00  0.00 -1.00  1.00  0.00  0.00  0.00  1.00  0.00  0.00  0.00
   7   7 -1.00  1.00  0.00 -0.00  1.00  0.00  0.00  0.00  1.00  0.00  0.00  0.00
   8   8  1.00  0.00  0.00  1.00 -1.00  0.00  0.00  0.00  1.00  0.00  0.00  0.00
   9   9  0.00 -1.00  0.00 -1.00  0.00  0.00  0.00  0.00  1.00  0.00  0.00  0.00
  10  10  0.00  1.00  0.00  1.00  0.00  0.00  0.00  0.00  1.00  0.00  0.00  0.00
  11  11 -1.00  0.00  0.00 -1.00  1.00  0.00  0.00  0.00  1.00  0.00  0.00  0.00
  12  12  1.00 -1.00  0.00  0.00 -1.00  0.00  0.00  0.00  1.00  0.00  0.00  0.00

 DIRECT LATTICE VECTORS CARTESIAN COMPONENTS (ANGSTROM)
          X                    Y                    Z
   0.212353987766E+01  -0.122602632000E+01   0.000000000000E+00
   0.000000000000E+00   0.245205264000E+01   0.000000000000E+00
   0.000000000000E+00   0.000000000000E+00   0.500000000000E+03


 CARTESIAN COORDINATES - PRIMITIVE CELL
 *******************************************************************************
 *      ATOM          X(ANGSTROM)         Y(ANGSTROM)         Z(ANGSTROM)
 *******************************************************************************
    1     6 C    -1.415693251771E+00  1.175009441523E-16  0.000000000000E+00
    2     6 C    -7.078466258856E-01 -1.226026320000E+00  0.000000000000E+00

 *******************************************************************************
 LOCAL ATOMIC FUNCTIONS BASIS SET
 *******************************************************************************
   ATOM   X(AU)   Y(AU)   Z(AU)  N. TYPE  EXPONENT  S COEF   P COEF   D/F/G COEF
 *******************************************************************************
   1 C   -2.675   0.000   0.000
                                  1 S  
                                         3.048E+03 1.826E-03 0.000E+00 0.000E+00
                                         4.564E+02 1.406E-02 0.000E+00 0.000E+00
                                         1.037E+02 6.876E-02 0.000E+00 0.000E+00
                                         2.923E+01 2.304E-01 0.000E+00 0.000E+00
                                         9.349E+00 4.685E-01 0.000E+00 0.000E+00
                                         3.189E+00 3.628E-01 0.000E+00 0.000E+00
                           2-     5 SP 
                                         3.665E+00-3.959E-01 2.365E-01 0.000E+00
                                         7.705E-01 1.216E+00 8.606E-01 0.000E+00
                           6-     9 SP 
                                         2.600E-01 1.000E+00 1.000E+00 0.000E+00
                          10-    14 D  
                                         8.000E-01 0.000E+00 0.000E+00 1.000E+00
   2 C   -1.338  -2.317   0.000
 INFORMATION **** SET_MPP **** PCRYSTAL CALCULATION
 INFORMATION **** READM2 **** NEW DEFAULT: FOCK/KS MATRIX MIXING SET TO 30 %
 INFORMATION **** READM2 **** NEW DEFAULT: FULL DIRECT SCF MODE
 INFORMATION **** READM2 **** NEW DEFAULT: COULOMB BIPOLAR BUFFER SET TO 32 Mb
 INFORMATION **** READM2 **** NEW DEFAULT: EXCHANGE BIPOLAR BUFFER SET TO 32 Mb

 *******************************************************************************
 NEW DEFAULT: DFT INTEGRATION GRID INCREASED TO XLGRID
 NEW DEFAULT: DIIS ACCELERATOR ACTIVE
 USE KEYWORD NODIIS TO TURN IT OFF
 *******************************************************************************

 WARNING **** RDDFTP **** HSE06-HJS ACTIVE
 RANGE SEPARATION - OMEGA:   0.11000000000000000     
 INFORMATION **** TOLINTEG **** COULOMB AND EXCHANGE SERIES TOLERANCES MODIFIED
 INFORMATION **** SMEAR **** FERMI SMEARING ACTIVE
 FERMI SMEARING - TEMPERATURE SMEARING OF FERMI SURFACE  0.1000E-03
 INFORMATION **** TOLDEE **** SCF TOL ON TOTAL ENERGY SET TO          11
 INFORMATION **** MAXCYCLE **** MAX NUMBER OF SCF CYCLES SET TO         200
 *******************************************************************************
 N. OF ATOMS PER CELL         2  COULOMB OVERLAP TOL         (T1) 10**   -7
 NUMBER OF SHELLS             8  COULOMB PENETRATION TOL     (T2) 10**   -7
 NUMBER OF AO                28  EXCHANGE OVERLAP TOL        (T3) 10**   -7
 N. OF ELECTRONS PER CELL    12  EXCHANGE PSEUDO OVP (F(G))  (T4) 10**   -7
 CORE ELECTRONS PER CELL      4  EXCHANGE PSEUDO OVP (P(G))  (T5) 10**  -14
 N. OF SYMMETRY OPERATORS    12  POLE ORDER IN MONO ZONE                  4
 *******************************************************************************
 TYPE OF CALCULATION :  RESTRICTED CLOSED SHELL
 KOHN-SHAM HAMILTONIAN

 (EXCHANGE)[CORRELATION] FUNCTIONAL:(HSE06 SR/GGA)[PERDEW-BURKE-ERNZERHOF]

 RANGE-SEPARATED HYBRID FUNCTIONAL 
 OMEGA (SHORT-RANGE)[LONG-RANGE]:(    0.1100)[    0.0000]

 HYBRID EXCHANGE - PERCENTAGE OF FOCK EXCHANGE    25.0000

 CAPPA:IS1  3;IS2  3;IS3  1; K PTS MONK NET   3; SYMMOPS:K SPACE  24;G SPACE  12

 *******************************************************************************
 MAX NUMBER OF SCF CYCLES     200  CONVERGENCE ON DELTAP        10**-21
 WEIGHT OF F(I) IN F(I+1)      30% CONVERGENCE ON ENERGY        10**-11
 SHRINK. FACT.(MONKH.)    3  3  1  NUMBER OF K POINTS IN THE IBZ      3
 SHRINKING FACTOR(GILAT NET)    9  NUMBER OF K POINTS(GILAT NET)     12
 *******************************************************************************
 *** K POINTS COORDINATES (OBLIQUE COORDINATES IN UNITS OF IS =  3)
   1-R(  0  0  0)   2-C(  1  0  0)   3-C(  1  1  0)

 DIRECT LATTICE VECTORS COMPON. (A.U.)     RECIP. LATTICE VECTORS COMPON. (A.U.) 
        X            Y            Z              X            Y            Z
    4.0129088   -2.3168540    0.0000000      1.5657434    0.0000000    0.0000000
    0.0000000    4.6337080    0.0000000      0.7828717    1.3559735   -0.0000000
    0.0000000    0.0000000  944.8630670     -0.0000000    0.0000000    0.0066498

 DISK SPACE FOR EIGENVECTORS (FTN 10)        3920 REALS

 SYMMETRY ADAPTION OF THE BLOCH FUNCTIONS ENABLED
 TTTTTTTTTTTTTTTTTTTTTTTTTTTTTT gordsh1     TELAPSE        3.11 TCPU        1.06

 MATRIX SIZE: P(G)   16142, F(G)    3969, P(G) IRR    1249, F(G) IRR     705
 MAX G-VECTOR INDEX FOR 1- AND 2-ELECTRON INTEGRALS  55

 TTTTTTTTTTTTTTTTTTTTTTTTTTTTTT INPUT       TELAPSE        3.16 TCPU        1.10

 NEIGHBORS OF THE NON-EQUIVALENT ATOMS

 N = NUMBER OF NEIGHBORS AT DISTANCE R
    ATOM  N     R/ANG      R/AU   NEIGHBORS (ATOM LABELS AND CELL INDICES)
   1 C    3     1.4157     2.6753    2 C    0 0 0    2 C   -1 0 0    2 C    0 1 0
   1 C    6     2.4521     4.6337    1 C   -1-1 0    1 C    1 1 0    1 C   -1 0 0
                                     1 C    1 0 0    1 C    0-1 0    1 C    0 1 0
   1 C    3     2.8314     5.3505    2 C    1 1 0    2 C   -1-1 0    2 C   -1 1 0
   1 C    6     3.7456     7.0781    2 C    1 0 0    2 C    0-1 0    2 C   -2-1 0
                                     2 C    1 2 0    2 C   -2 0 0    2 C    0 2 0
   1 C    6     4.2471     8.0258    1 C   -2-1 0    1 C    2 1 0    1 C   -1-2 0
                                     1 C    1 2 0    1 C   -1 1 0    1 C    1-1 0
   1 C    6     4.9041     9.2674    1 C   -2-2 0    1 C    2 2 0    1 C   -2 0 0
                                     1 C    2 0 0    1 C    0-2 0    1 C    0 2 0


 SYMMETRY ALLOWED ELASTIC DISTORTION 1
  0.7071068  0.0000000
  0.0000000  0.7071068

 THERE ARE NO SYMMETRY ALLOWED DIRECTIONS
 TTTTTTTTTTTTTTTTTTTTTTTTTTTTTT SYMM        TELAPSE        3.19 TCPU        1.14
 TTTTTTTTTTTTTTTTTTTTTTTTTTTTTT INT_SCREEN  TELAPSE        3.19 TCPU        1.14

 ************************************************************************
 ************************************************************************
 * ELASTCON OPTION, W.F. PERGER, B. CIVALLERI, R. DOVESI                *
 * REFERENCES TO BE QUOTED WHEN USING THIS MODULE:                      *
 *                                                                      *
 * W.F. Perger, C. Criswell, B. Civalleri, R. Dovesi                    *
 * Ab-initio calculation of elastic constants of crystalline            *
 * systems with the CRYSTAL code                                        *
 * Comp. Phys. Comm. 180 (2009) 1753-1759                               *
 *                                                                      *
 * IT IS ASSUMED THAT THE INPUT IS FROM AN OPTIMIZED RUN                *

 CONVERGENCE CRITERION FOR ENERGY, TOLDEE =          1.0000E-08
 CONVERGENCE CRITERION FOR RMS GRADIENT, TOLDEG =    3.0000E-04
 CONVERGENCE CRITERION FOR RMS DISPLACEMENT, TOLDEX  6.2000E-04
 MAGNITUDE OF STEPSIZE FOR ADIMENSIONAL STRAINS =    1.0000E-02
 NUMBER OF POINTS (TOTAL) IN NUMERICAL 2ND DERIVATIVE=        3
 ************************************************************************
 ************************************************************************

 ************************************************************************

  Y. NOEL POST DOC. TURIN 2002

  THIS ROUTINE EVALUATES THE NON ZERO ELEMENTS OF THE ELASTIC TENSOR 

  ORDER OF THE TENSOR : 4

 |  1 A    1 E     .     |
 |         1 A     .     |
 |                 &     |

 EACH  LETTER   CORRESPONDS  TO  AN  INDEPENDENT  COMPONENT.
 INTERDEPENDENT COMPONENTS (WITH SAME LETTER) ARE RELATED BY
 THE COEFFICIENT THAT PRECEEDS EACH LETTER.

 THE "&" SYMBOL MEANS 1/2(C11-C12) [OR 2(S11-S12)] FOR THE ORDER
 4 C AND S ELASTIC TENSOR IN THE TRIGONAL OR HEXAGONAL CASES.

 ************************************************************************


 LIST OF ACTIVE DEFORMATIONS: 
             1
 TTTTTTTTTTTTTTTTTTTTTTTTTTTTTT gordsh1     TELAPSE        3.20 TCPU        1.14

 MATRIX SIZE: P(G)   16142, F(G)    3969, P(G) IRR    1249, F(G) IRR     705
 MAX G-VECTOR INDEX FOR 1- AND 2-ELECTRON INTEGRALS  55

 TTTTTTTTTTTTTTTTTTTTTTTTTTTTTT INPUT       TELAPSE        3.20 TCPU        1.14

 NEIGHBORS OF THE NON-EQUIVALENT ATOMS

 N = NUMBER OF NEIGHBORS AT DISTANCE R
    ATOM  N     R/ANG      R/AU   NEIGHBORS (ATOM LABELS AND CELL INDICES)
   1 C    3     1.4157     2.6753    2 C    0 0 0    2 C   -1 0 0    2 C    0 1 0
   1 C    6     2.4521     4.6337    1 C   -1-1 0    1 C    1 1 0    1 C   -1 0 0
                                     1 C    1 0 0    1 C    0-1 0    1 C    0 1 0
   1 C    3     2.8314     5.3505    2 C    1 1 0    2 C   -1-1 0    2 C   -1 1 0
   1 C    6     3.7456     7.0781    2 C    1 0 0    2 C    0-1 0    2 C   -2-1 0
                                     2 C    1 2 0    2 C   -2 0 0    2 C    0 2 0
   1 C    6     4.2471     8.0258    1 C   -2-1 0    1 C    2 1 0    1 C   -1-2 0
                                     1 C    1 2 0    1 C   -1 1 0    1 C    1-1 0
   1 C    6     4.9041     9.2674    1 C   -2-2 0    1 C    2 2 0    1 C   -2 0 0
                                     1 C    2 0 0    1 C    0-2 0    1 C    0 2 0


 SYMMETRY ALLOWED ELASTIC DISTORTION 1
  0.7071068  0.0000000
  0.0000000  0.7071068

 THERE ARE NO SYMMETRY ALLOWED DIRECTIONS
 WARNING **** INT_SCREEN **** CELL PARAMETERS OPTIMIZATION ONLY
 TTTTTTTTTTTTTTTTTTTTTTTTTTTTTT SYMM        TELAPSE        3.20 TCPU        1.14
 TTTTTTTTTTTTTTTTTTTTTTTTTTTTTT INT_SCREEN  TELAPSE        3.20 TCPU        1.14

 *******************************************************************************
 *                             OPTIMIZATION STARTS                             *
 *******************************************************************************
 RECLASIFICATION OF INDICES FOR INTEGRAL CALC ACCORDING TO DIFFERENT CRITERIA:
           FIXDELTE                  FIXDELTX              FIXDELTN
          0.10000000E-01           0.80000000                 10
 DEFAULT MAX NUM OF POINTS  100
 *******************************************************************************

 *******************************************************************************
 CELL OPTIMIZATION - POINT    1

 DFT PARAMETERS

     ATOM       ELECTRONS   NET CHARGE   R(ANGSTROM)
   1   6  C       6.0000      0.0000     0.77000000

 SIZE OF GRID=      12894
 TTTTTTTTTTTTTTTTTTTTTTTTTTTTTT MAKE_GRID2  TELAPSE        3.29 TCPU        1.22
 BECKE WEIGHT FUNCTION
 RADSAFE =     2.00
 TOLERANCES - DENSITY:10**- 6; POTENTIAL:10**- 9; GRID WGT:10**-14

 RADIAL INTEGRATION  - INTERVALS (POINTS,UPPER LIMIT):            1( 99,  4.0*R)

 ANGULAR INTEGRATION - INTERVALS (ACCURACY LEVEL [N. POINTS] UPPER LIMIT):
  1(  6[ 146]   0.2)  2( 11[ 302]   0.5)  3( 14[ 590]   0.9)  4( 18[1454]   3.5)
  5( 14[ 590]9999.0)
 TTTTTTTTTTTTTTTTTTTTTTTTTTTTTT INT_CALC    TELAPSE        3.34 TCPU        1.28

 *******************************************************************************
 2D elastic properties                                                           
 CRYSTAL - SCF - TYPE OF CALCULATION :  RESTRICTED CLOSED SHELL
 *******************************************************************************

 CAPPA:IS1  3;IS2  3;IS3  1; K PTS MONK NET   3; SYMMOPS:K SPACE  24;G SPACE  12

 TTTTTTTTTTTTTTTTTTTTTTTTTTTTTT SDIK        TELAPSE        3.35 TCPU        1.28

 AAAAAAAAAAAAAAAAAAAAAAAAAAAAAAAAAAAAAAAAAAAAAAAAAAAAAAAAAAAAAAAAAAAAAAAAAAAAAAA
         ATOMIC WAVEFUNCTION(S)


 NUCLEAR CHARGE  6.0  SYMMETRY SPECIES            S    P
 N. ELECTRONS    6.0  NUMBER OF PRIMITIVE GTOS    9    3
                      NUMBER OF CONTRACTED GTOS   3    2
                      NUMBER OF CLOSED SHELLS     2    0
                      OPEN SHELL OCCUPATION       0    2

  ZNUC  SCFIT    TOTAL HF ENERGY   KINETIC ENERGY   VIRIAL THEOREM             ACCURACY
   6.0     8    -3.761838750E+01  3.811478523E+01 -1.986976242E+00  2.1E-06

 AAAAAAAAAAAAAAAAAAAAAAAAAAAAAAAAAAAAAAAAAAAAAAAAAAAAAAAAAAAAAAAAAAAAAAAAAAAAAAA

 CHARGE NORMALIZATION FACTOR   1.00000000
 TOTAL ATOMIC CHARGES:
   6.0000000   6.0000000
 TTTTTTTTTTTTTTTTTTTTTTTTTTTTTT MOQGAD      TELAPSE        3.35 TCPU        1.28
 TTTTTTTTTTTTTTTTTTTTTTTTTTTTTT SHELLXN     TELAPSE        3.46 TCPU        1.39
 TTTTTTTTTTTTTTTTTTTTTTTTTTTTTT MONMO3      TELAPSE        3.46 TCPU        1.39
 NUMERICALLY INTEGRATED DENSITY     12.0000027988
 TTTTTTTTTTTTTTTTTTTTTTTTTTTTTT NUMDFT      TELAPSE        3.47 TCPU        1.41
 CYC   0 ETOT(AU) -7.656973978871E+01 DETOT -7.66E+01 tst  0.00E+00 PX  1.00E+00
 TTTTTTTTTTTTTTTTTTTTTTTTTTTTTT DIIS        TELAPSE        3.47 TCPU        1.41
 TTTTTTTTTTTTTTTTTTTTTTTTTTTTTT FDIK        TELAPSE        3.48 TCPU        1.41
 POSSIBLY CONDUCTING STATE - EFERMI(AU) -1.2589736E-01 (RES. CHARGE  1.07E-14;IT.  0)
 TTTTTTTTTTTTTTTTTTTTTTTTTTTTTT PDIG        TELAPSE        3.48 TCPU        1.41
 CHARGE NORMALIZATION FACTOR   1.00000000
 TOTAL ATOMIC CHARGES:
   6.0000000   6.0000000
 TTTTTTTTTTTTTTTTTTTTTTTTTTTTTT MOQGAD      TELAPSE        3.48 TCPU        1.41
 TTTTTTTTTTTTTTTTTTTTTTTTTTTTTT SHELLXN     TELAPSE        3.59 TCPU        1.51
 TTTTTTTTTTTTTTTTTTTTTTTTTTTTTT MONMO3      TELAPSE        3.59 TCPU        1.51
 NUMERICALLY INTEGRATED DENSITY     12.0000022463
 TTTTTTTTTTTTTTTTTTTTTTTTTTTTTT NUMDFT      TELAPSE        3.60 TCPU        1.52
 CYC   1 ETOT(AU) -7.599141847593E+01 DETOT  5.78E-01 tst  0.00E+00 PX  1.00E+00
 TTTTTTTTTTTTTTTTTTTTTTTTTTTTTT DIIS        TELAPSE        3.61 TCPU        1.53
 DIIS TEST: 0.84515E-02 AT SCF   CYCLE   1 - MIX   30 %
 TTTTTTTTTTTTTTTTTTTTTTTTTTTTTT FDIK        TELAPSE        3.65 TCPU        1.57
 POSSIBLY CONDUCTING STATE - EFERMI(AU) -8.0442429E-02 (RES. CHARGE  9.77E-15;IT.  0)
 TTTTTTTTTTTTTTTTTTTTTTTTTTTTTT PDIG        TELAPSE        3.67 TCPU        1.59
 CHARGE NORMALIZATION FACTOR   1.00000000
 TOTAL ATOMIC CHARGES:
   6.0000000   6.0000000
 TTTTTTTTTTTTTTTTTTTTTTTTTTTTTT MOQGAD      TELAPSE        3.67 TCPU        1.59
 TTTTTTTTTTTTTTTTTTTTTTTTTTTTTT SHELLXN     TELAPSE        3.78 TCPU        1.70
 TTTTTTTTTTTTTTTTTTTTTTTTTTTTTT MONMO3      TELAPSE        3.78 TCPU        1.70
 NUMERICALLY INTEGRATED DENSITY     12.0000021963
 TTTTTTTTTTTTTTTTTTTTTTTTTTTTTT NUMDFT      TELAPSE        3.80 TCPU        1.72
 CYC   2 ETOT(AU) -7.599495135083E+01 DETOT -3.53E-03 tst  6.05E-04 PX  2.35E-02
 TTTTTTTTTTTTTTTTTTTTTTTTTTTTTT DIIS        TELAPSE        3.80 TCPU        1.72
 DIIS TEST: 0.19622E-03 AT SCF   CYCLE   2 - DIIS ACTIVE - HISTORY:     2 CYCLES
 TTTTTTTTTTTTTTTTTTTTTTTTTTTTTT FDIK        TELAPSE        3.80 TCPU        1.72
 POSSIBLY CONDUCTING STATE - EFERMI(AU) -8.0916804E-02 (RES. CHARGE  6.53E-13;IT. 12)
 TTTTTTTTTTTTTTTTTTTTTTTTTTTTTT PDIG        TELAPSE        3.80 TCPU        1.72
 CHARGE NORMALIZATION FACTOR   1.00000000
 TOTAL ATOMIC CHARGES:
   6.0000000   6.0000000
 TTTTTTTTTTTTTTTTTTTTTTTTTTTTTT MOQGAD      TELAPSE        3.80 TCPU        1.72
 TTTTTTTTTTTTTTTTTTTTTTTTTTTTTT SHELLXN     TELAPSE        3.91 TCPU        1.83
 TTTTTTTTTTTTTTTTTTTTTTTTTTTTTT MONMO3      TELAPSE        3.92 TCPU        1.83
 NUMERICALLY INTEGRATED DENSITY     12.0000021846
 TTTTTTTTTTTTTTTTTTTTTTTTTTTTTT NUMDFT      TELAPSE        3.93 TCPU        1.84
 CYC   3 ETOT(AU) -7.599509258827E+01 DETOT -1.41E-04 tst  2.50E-05 PX  4.77E-03
 TTTTTTTTTTTTTTTTTTTTTTTTTTTTTT DIIS        TELAPSE        3.93 TCPU        1.84
 DIIS TEST: 0.17270E-05 AT SCF   CYCLE   3 - DIIS ACTIVE - HISTORY:     3 CYCLES
 TTTTTTTTTTTTTTTTTTTTTTTTTTTTTT FDIK        TELAPSE        3.93 TCPU        1.84
 POSSIBLY CONDUCTING STATE - EFERMI(AU) -8.0176756E-02 (RES. CHARGE  2.54E-11;IT. 12)
 TTTTTTTTTTTTTTTTTTTTTTTTTTTTTT PDIG        TELAPSE        3.93 TCPU        1.84
 CHARGE NORMALIZATION FACTOR   1.00000000
 TOTAL ATOMIC CHARGES:
   6.0000000   6.0000000
 TTTTTTTTTTTTTTTTTTTTTTTTTTTTTT MOQGAD      TELAPSE        3.93 TCPU        1.84
 TTTTTTTTTTTTTTTTTTTTTTTTTTTTTT SHELLXN     TELAPSE        4.04 TCPU        1.95
 TTTTTTTTTTTTTTTTTTTTTTTTTTTTTT MONMO3      TELAPSE        4.04 TCPU        1.96
 NUMERICALLY INTEGRATED DENSITY     12.0000021837
 TTTTTTTTTTTTTTTTTTTTTTTTTTTTTT NUMDFT      TELAPSE        4.06 TCPU        1.97
 CYC   4 ETOT(AU) -7.599509288351E+01 DETOT -2.95E-07 tst  1.53E-07 PX  4.23E-04
 TTTTTTTTTTTTTTTTTTTTTTTTTTTTTT DIIS        TELAPSE        4.09 TCPU        2.00
 DIIS TEST: 0.39749E-10 AT SCF   CYCLE   4 - DIIS ACTIVE - HISTORY:     4 CYCLES
 TTTTTTTTTTTTTTTTTTTTTTTTTTTTTT FDIK        TELAPSE        4.09 TCPU        2.00
 POSSIBLY CONDUCTING STATE - EFERMI(AU) -8.0178969E-02 (RES. CHARGE  3.20E-12;IT.  6)
 TTTTTTTTTTTTTTTTTTTTTTTTTTTTTT PDIG        TELAPSE        4.09 TCPU        2.00
 CHARGE NORMALIZATION FACTOR   1.00000000
 TOTAL ATOMIC CHARGES:
   6.0000000   6.0000000
 TTTTTTTTTTTTTTTTTTTTTTTTTTTTTT MOQGAD      TELAPSE        4.09 TCPU        2.00
 TTTTTTTTTTTTTTTTTTTTTTTTTTTTTT SHELLXN     TELAPSE        4.21 TCPU        2.12
 TTTTTTTTTTTTTTTTTTTTTTTTTTTTTT MONMO3      TELAPSE        4.21 TCPU        2.12
 NUMERICALLY INTEGRATED DENSITY     12.0000021837
 TTTTTTTTTTTTTTTTTTTTTTTTTTTTTT NUMDFT      TELAPSE        4.22 TCPU        2.13
 CYC   5 ETOT(AU) -7.599509288707E+01 DETOT -3.55E-09 tst  6.32E-12 PX  4.95E-06
 TTTTTTTTTTTTTTTTTTTTTTTTTTTTTT DIIS        TELAPSE        4.22 TCPU        2.13
 DIIS TEST: 0.22722E-10 AT SCF   CYCLE   5 - DIIS ACTIVE - HISTORY:     5 CYCLES
 TTTTTTTTTTTTTTTTTTTTTTTTTTTTTT FDIK        TELAPSE        4.22 TCPU        2.13
 POSSIBLY CONDUCTING STATE - EFERMI(AU) -8.0178988E-02 (RES. CHARGE  1.19E-12;IT.  4)
 TTTTTTTTTTTTTTTTTTTTTTTTTTTTTT PDIG        TELAPSE        4.22 TCPU        2.13
 CHARGE NORMALIZATION FACTOR   1.00000000
 TOTAL ATOMIC CHARGES:
   6.0000000   6.0000000
 TTTTTTTTTTTTTTTTTTTTTTTTTTTTTT MOQGAD      TELAPSE        4.22 TCPU        2.13
 TTTTTTTTTTTTTTTTTTTTTTTTTTTTTT SHELLXN     TELAPSE        4.33 TCPU        2.24
 TTTTTTTTTTTTTTTTTTTTTTTTTTTTTT MONMO3      TELAPSE        4.34 TCPU        2.24
 NUMERICALLY INTEGRATED DENSITY     12.0000021837
 TTTTTTTTTTTTTTTTTTTTTTTTTTTTTT NUMDFT      TELAPSE        4.35 TCPU        2.26
 CYC   6 ETOT(AU) -7.599509288707E+01 DETOT -5.91E-12 tst  1.79E-13 PX  5.90E-07
 TTTTTTTTTTTTTTTTTTTTTTTTTTTTTT DIIS        TELAPSE        4.35 TCPU        2.26
 DIIS TEST: 0.63261E-13 AT SCF   CYCLE   6 - DIIS ACTIVE - HISTORY:     6 CYCLES
 TTTTTTTTTTTTTTTTTTTTTTTTTTTTTT FDIK        TELAPSE        4.35 TCPU        2.26
 POSSIBLY CONDUCTING STATE - EFERMI(AU) -8.0179005E-02 (RES. CHARGE  1.15E-12;IT.  4)
 TTTTTTTTTTTTTTTTTTTTTTTTTTTTTT PDIG        TELAPSE        4.35 TCPU        2.26
 CHARGE NORMALIZATION FACTOR   1.00000000
 TOTAL ATOMIC CHARGES:
   6.0000000   6.0000000
 TTTTTTTTTTTTTTTTTTTTTTTTTTTTTT MOQGAD      TELAPSE        4.35 TCPU        2.26
 TTTTTTTTTTTTTTTTTTTTTTTTTTTTTT SHELLXN     TELAPSE        4.46 TCPU        2.37

 ::: DIPOLE MOMENT ALONG NON PERIODIC DIRECTIONS:
 ::: A.U.     (Z)  1.57897E-06
 ::: DEBYE        -4.01334E-06

 +++ ENERGIES IN A.U. +++
 ::: EXT EL-POLE                                  -1.7281125587164E+02
 ::: EXT EL-SPHEROPOLE                             0.0000000000000E+00
 ::: BIELET ZONE E-E                               1.6212106250647E+02
 ::: TOTAL E-E                                    -1.0690193365172E+01
 ::: TOTAL E-N + N-E                              -8.8194758266265E+01
 ::: TOTAL N-N                                    -4.4716483476312E+01
 ::: KINETIC ENERGY                                7.6043896053128E+01
 ::: PSEUDO TOTAL   ENERGY                        -6.7557539054622E+01
 ::: VIRIAL COEFFICIENT                            1.0590966029841E+00
 TTTTTTTTTTTTTTTTTTTTTTTTTTTTTT MONMO3      TELAPSE        4.47 TCPU        2.37
 NUMERICALLY INTEGRATED DENSITY     12.0000021837
 EXCHANGE ENERGY: -0.801306272507E+01  CORRELATION ENERGY: -0.424491107340E+00
 TTTTTTTTTTTTTTTTTTTTTTTTTTTTTT NUMDFT      TELAPSE        4.48 TCPU        2.39
 CYC   7 ETOT(AU) -7.599509288703E+01 DETOT  4.33E-11 tst  2.74E-15 PX  5.90E-07

 == SCF ENDED - CONVERGENCE ON ENERGY      E(AU) -7.5995092887029E+01 CYCLES   7


 ENERGY EXPRESSION=HARTREE+FOCK EXCH*0.00000+(HSE06      EXCH)*1.00000+PBE        CORR

 FINITE TEMPERATURE DFT CALCULATION 
 TEMPERATURE      (T)    1.000000000000E-04 HARTREE 
 ENERGY           (E)   -7.599509288703E+01
 FREE ENERGY      (F)   -7.599509973293E+01
 ELECTRON ENTROPY (S)    6.845898079604E-02
 (E(T)+F(T))/2    (E0)  -7.599509630998E+01


 TOTAL ENERGY(DFT)(AU)(  7) -7.5995096309978E+01 DE 4.3E-11 tester 2.7E-15
 TTTTTTTTTTTTTTTTTTTTTTTTTTTTTT EDFT        TELAPSE        4.48 TCPU        2.39
 WARNING **** SCF **** SMEAR: ANALYTICAL GRADIENT IS THE FREE ENERGY DERIVATIVE

 *******************************************************************************
 *                             FORCE CALCULATION                               *
 *******************************************************************************

 TTTTTTTTTTTTTTTTTTTTTTTTTTTTTT NUMDFG      TELAPSE        4.51 TCPU        2.42
 INFORMATION **** GENPOG **** BIPO BUFFER LENGTH (WORDS) =       27800
 TTTTTTTTTTTTTTTTTTTTTTTTTTTTTT SHELXG      TELAPSE        5.14 TCPU        3.04

 CARTESIAN FORCES IN HARTREE/BOHR (ANALYTICAL)
   ATOM                     X                   Y                   Z
   1   6             3.183987208968E-15  8.680194904270E-17 -3.682384258630E-15
   2   6            -3.146979774814E-15 -8.680194904270E-17 -3.682384258630E-15

 RESULTANT FORCE     3.700743415417E-17  0.000000000000E+00 -7.364768517260E-15

 ATOMIC PART

 THERE ARE NO SYMMETRY ALLOWED DIRECTIONS

 CELL PART

 GRADIENT WITH RESPECT TO THE CELL PARAMETER IN HARTREE/BOHR
 ORDER: -D/DA1X, -D/DA1Y
       -D/DA2X, -D/DA2Y

  0.353311167247E-01 -0.287995572703E-16
  0.176655583624E-01  0.305976446277E-01

 SYMMETRY ALLOWED FORCES (ANALYTICAL) (DIRECTION, FORCE)

    1  2.0050798E-01
 TTTTTTTTTTTTTTTTTTTTTTTTTTTTTT TOTGRA      TELAPSE        5.15 TCPU        3.06
 INFORMATION **** optc001 **** GEOMETRY OUTPUT FILE
 CLASSICAL MODEL (SCHLEGEL) USED AS INITIAL HESSIAN MATRIX
 REFERENCE GEOMETRY DEFINED

 MAX GRADIENT      0.200508  THRESHOLD              0.000450 CONVERGED NO
 RMS GRADIENT      0.200508  THRESHOLD              0.000300 CONVERGED NO

 GRADIENT NORM     0.200508  GRADIENT THRESHOLD     0.500000

 EIGENVALUES OF THE ESTIMATED HESSIAN
   3.722    

 INITIAL TRUST RADIUS    0.5000000000E+00

 PREDICTED ENERGY CHANGE    -0.540E-02

 INITIAL DISPLACEMENTS
  0.053864
 TTTTTTTTTTTTTTTTTTTTTTTTTTTTTT OPTI        TELAPSE        5.17 TCPU        3.07

 OPTOPTOPTOPTOPTOPTOPTOPTOPTOPTOPTOPTOPTOPTOPTOPTOPTOPTOPTOPTOPTOPTOPTOPTOPTOPT

 - INFORMATION ON SCF MOVED TO SCFOUT.LOG
 GEOMETRY OPTIMIZATION INFORMATION STORED IN OPTINFO.DAT

 OPTOPTOPTOPTOPTOPTOPTOPTOPTOPTOPTOPTOPTOPTOPTOPTOPTOPTOPTOPTOPTOPTOPTOPTOPTOPT
 *******************************************************************************
 CELL OPTIMIZATION - POINT    2
 *******************************************************************************
 LATTICE PARAMETERS (ANGSTROMS AND DEGREES) - BOHR = 0.5291772083 ANGSTROM
 PRIMITIVE CELL
         A              B              C           ALPHA      BETA       GAMMA 
     2.54544549     2.54544549   500.00000000    90.000000  90.000000 120.000000
 *******************************************************************************
 ATOMS IN THE ASYMMETRIC UNIT    1 - ATOMS IN THE UNIT CELL:    2
     ATOM                 X/A                 Y/B             Z(ANGSTROM)
 *******************************************************************************
      1 T   6 C     3.333333333333E-01 -3.333333333333E-01  0.000000000000E+00
      2 F   6 C    -3.333333333333E-01  3.333333333333E-01  0.000000000000E+00

 T = ATOM BELONGING TO THE ASYMMETRIC UNIT

 TOTAL ENERGY(DFT)(AU)( 10) -7.5997981038263E+01     DE (AU)   -2.885E-03

 UPDATED TRUST RADIUS     0.500E+00

 SYMMETRY ALLOWED FORCES  (COORDINATE, FORCE)

    1 -8.3394474E-02

 GRADIENT NORM     0.083394  GRADIENT THRESHOLD     0.500000

 EIGENVALUES OF THE ESTIMATED HESSIAN
   5.271    

 PREDICTED ENERGY CHANGE    -0.660E-03

 MAX GRADIENT      0.083394  THRESHOLD              0.000450 CONVERGED NO
 RMS GRADIENT      0.083394  THRESHOLD              0.000300 CONVERGED NO
 MAX DISPLAC.      0.015822  THRESHOLD              0.000930 CONVERGED NO
 RMS DISPLAC.      0.015822  THRESHOLD              0.000620 CONVERGED NO
 TTTTTTTTTTTTTTTTTTTTTTTTTTTTTT OPTI        TELAPSE        7.37 TCPU        5.23
 *******************************************************************************
 CELL OPTIMIZATION - POINT    3
 *******************************************************************************
 LATTICE PARAMETERS (ANGSTROMS AND DEGREES) - BOHR = 0.5291772083 ANGSTROM
 PRIMITIVE CELL
         A              B              C           ALPHA      BETA       GAMMA 
     2.51696708     2.51696708   500.00000000    90.000000  90.000000 120.000000
 *******************************************************************************
 ATOMS IN THE ASYMMETRIC UNIT    1 - ATOMS IN THE UNIT CELL:    2
     ATOM                 X/A                 Y/B             Z(ANGSTROM)
 *******************************************************************************
      1 T   6 C     3.333333333333E-01 -3.333333333333E-01  0.000000000000E+00
      2 F   6 C    -3.333333333333E-01  3.333333333333E-01  0.000000000000E+00

 T = ATOM BELONGING TO THE ASYMMETRIC UNIT

 TOTAL ENERGY(DFT)(AU)(  7) -7.5998673633990E+01     DE (AU)   -6.926E-04

 UPDATED TRUST RADIUS     0.100E+01

 SYMMETRY ALLOWED FORCES  (COORDINATE, FORCE)

    1 -2.9697013E-03

 GRADIENT NORM     0.002970  GRADIENT THRESHOLD     0.500000

 EIGENVALUES OF THE ESTIMATED HESSIAN
   5.083    

 PREDICTED ENERGY CHANGE    -0.868E-06

 MAX GRADIENT      0.002970  THRESHOLD              0.000450 CONVERGED NO
 RMS GRADIENT      0.002970  THRESHOLD              0.000300 CONVERGED NO
 MAX DISPLAC.      0.000584  THRESHOLD              0.000930 CONVERGED YES
 RMS DISPLAC.      0.000584  THRESHOLD              0.000620 CONVERGED YES
 TTTTTTTTTTTTTTTTTTTTTTTTTTTTTT OPTI        TELAPSE        9.22 TCPU        7.03
 *******************************************************************************
 CELL OPTIMIZATION - POINT    4
 *******************************************************************************
 LATTICE PARAMETERS (ANGSTROMS AND DEGREES) - BOHR = 0.5291772083 ANGSTROM
 PRIMITIVE CELL
         A              B              C           ALPHA      BETA       GAMMA 
     2.51592727     2.51592727   500.00000000    90.000000  90.000000 120.000000
 *******************************************************************************
 ATOMS IN THE ASYMMETRIC UNIT    1 - ATOMS IN THE UNIT CELL:    2
     ATOM                 X/A                 Y/B             Z(ANGSTROM)
 *******************************************************************************
      1 T   6 C     3.333333333333E-01 -3.333333333333E-01  0.000000000000E+00
      2 F   6 C    -3.333333333333E-01  3.333333333333E-01  0.000000000000E+00

 T = ATOM BELONGING TO THE ASYMMETRIC UNIT

 TOTAL ENERGY(DFT)(AU)(  8) -7.5998674475841E+01     DE (AU)   -8.419E-07

 UPDATED TRUST RADIUS     0.200E+01

 SYMMETRY ALLOWED FORCES  (COORDINATE, FORCE)

    1  6.4619436E-05

 GRADIENT NORM     0.000065  GRADIENT THRESHOLD     0.500000

 EIGENVALUES OF THE ESTIMATED HESSIAN
   5.194    

 PREDICTED ENERGY CHANGE    -0.402E-09

 MAX GRADIENT      0.000065  THRESHOLD              0.000450 CONVERGED YES
 RMS GRADIENT      0.000065  THRESHOLD              0.000300 CONVERGED YES
 MAX DISPLAC.      0.000012  THRESHOLD              0.000930 CONVERGED YES
 RMS DISPLAC.      0.000012  THRESHOLD              0.000620 CONVERGED YES

 CONVERGENCE TESTS SATISFIED AFTER   4 ENERGY AND GRADIENT CALCULATIONS
 +++++++++++++++++++++++++++++++++++++++++++++++++++++++++++++++++++++++++++++++
 FINALRUN OPTION: RE-STARTING OPTIMIZATION
 +++++++++++++++++++++++++++++++++++++++++++++++++++++++++++++++++++++++++++++++
 TTTTTTTTTTTTTTTTTTTTTTTTTTTTTT OPTI        TELAPSE       11.25 TCPU        9.05
 *******************************************************************************
 CELL OPTIMIZATION - POINT    5
 *******************************************************************************
 LATTICE PARAMETERS (ANGSTROMS AND DEGREES) - BOHR = 0.5291772083 ANGSTROM
 PRIMITIVE CELL
         A              B              C           ALPHA      BETA       GAMMA 
     2.51594941     2.51594941   500.00000000    90.000000  90.000000 120.000000
 *******************************************************************************
 ATOMS IN THE ASYMMETRIC UNIT    1 - ATOMS IN THE UNIT CELL:    2
     ATOM                 X/A                 Y/B             Z(ANGSTROM)
 *******************************************************************************
      1 T   6 C     3.333333333333E-01 -3.333333333333E-01  0.000000000000E+00
      2 F   6 C    -3.333333333333E-01  3.333333333333E-01  0.000000000000E+00

 T = ATOM BELONGING TO THE ASYMMETRIC UNIT

 REFERENCE GEOMETRY WILL BE CHANGED

 TOTAL ENERGY(DFT)(AU)(  5) -7.5998698759296E+01     DE (AU)   -2.428E-05

 SYMMETRY ALLOWED FORCES  (COORDINATE, FORCE)

    1 -4.5664189E-05

 GRADIENT NORM     0.000046  GRADIENT THRESHOLD     0.500000

 HESSIAN UPDATE SKIPPED

 EIGENVALUES OF THE ESTIMATED HESSIAN
   5.194    

 PREDICTED ENERGY CHANGE    -0.201E-09

 MAX GRADIENT      0.000046  THRESHOLD              0.000450 CONVERGED YES
 RMS GRADIENT      0.000046  THRESHOLD              0.000300 CONVERGED YES
 MAX DISPLAC.      0.000009  THRESHOLD              0.000930 CONVERGED YES
 RMS DISPLAC.      0.000009  THRESHOLD              0.000620 CONVERGED YES

 CONVERGENCE TESTS SATISFIED AFTER   5 ENERGY AND GRADIENT CALCULATIONS

 ******************************************************************
 * OPT END - CONVERGED * E(AU):  -7.599869875930E+01  POINTS    5 *
 ******************************************************************

   FERMI ENERGY:                 -8.6774580E-02 Ha 

 EIGENVECTORS IN FORTRAN UNIT 10

 NEIGHBORS OF THE NON-EQUIVALENT ATOMS

 N = NUMBER OF NEIGHBORS AT DISTANCE R
    ATOM  N     R/ANG      R/AU   NEIGHBORS (ATOM LABELS AND CELL INDICES)
   1 C    3     1.4526     2.7450    2 C    0 0 0    2 C   -1 0 0    2 C    0 1 0
   1 C    6     2.5159     4.7545    1 C   -1-1 0    1 C    1 1 0    1 C   -1 0 0
                                     1 C    1 0 0    1 C    0-1 0    1 C    0 1 0
   1 C    3     2.9052     5.4900    2 C    1 1 0    2 C   -1-1 0    2 C   -1 1 0
   1 C    6     3.8432     7.2626    2 C    1 0 0    2 C    0-1 0    2 C   -2-1 0
                                     2 C    1 2 0    2 C   -2 0 0    2 C    0 2 0
   1 C    6     4.3578     8.2350    1 C   -2-1 0    1 C    2 1 0    1 C   -1-2 0
                                     1 C    1 2 0    1 C   -1 1 0    1 C    1-1 0
   1 C    6     5.0319     9.5089    1 C   -2-2 0    1 C    2 2 0    1 C   -2 0 0
                                     1 C    2 0 0    1 C    0-2 0    1 C    0 2 0


 FINAL OPTIMIZED GEOMETRY - DIMENSIONALITY OF THE SYSTEM      2
 (NON PERIODIC DIRECTION: LATTICE PARAMETER FORMALLY SET TO 500)
 *******************************************************************************
 LATTICE PARAMETERS (ANGSTROMS AND DEGREES) - BOHR = 0.5291772083 ANGSTROM
 PRIMITIVE CELL
         A              B              C           ALPHA      BETA       GAMMA 
     2.51594941     2.51594941   500.00000000    90.000000  90.000000 120.000000
 *******************************************************************************
 ATOMS IN THE ASYMMETRIC UNIT    1 - ATOMS IN THE UNIT CELL:    2
     ATOM                 X/A                 Y/B             Z(ANGSTROM)
 *******************************************************************************
      1 T   6 C     3.333333333333E-01 -3.333333333333E-01  0.000000000000E+00
      2 F   6 C    -3.333333333333E-01  3.333333333333E-01  0.000000000000E+00

 T = ATOM BELONGING TO THE ASYMMETRIC UNIT
 INFORMATION **** fort.34 **** GEOMETRY OUTPUT FILE

 DIRECT LATTICE VECTORS CARTESIAN COMPONENTS (ANGSTROM)
          X                    Y                    Z
   0.217887609986E+01  -0.125797470278E+01   0.000000000000E+00
   0.000000000000E+00   0.251594940557E+01   0.000000000000E+00
   0.000000000000E+00   0.000000000000E+00   0.500000000000E+03


 CARTESIAN COORDINATES - PRIMITIVE CELL
 *******************************************************************************
 *      ATOM          X(ANGSTROM)         Y(ANGSTROM)         Z(ANGSTROM)
 *******************************************************************************
    1     6 C    -1.452584066571E+00  1.205628401980E-16  0.000000000000E+00
    2     6 C    -7.262920332855E-01 -1.257974702783E+00  0.000000000000E+00

 DFT PARAMETERS

     ATOM       ELECTRONS   NET CHARGE   R(ANGSTROM)
   1   6  C       6.0000      0.0000     0.77000000

 SIZE OF GRID=      13024
 TTTTTTTTTTTTTTTTTTTTTTTTTTTTTT MAKE_GRID2  TELAPSE       12.96 TCPU       10.68
 BECKE WEIGHT FUNCTION
 RADSAFE =     2.00
 TOLERANCES - DENSITY:10**- 6; POTENTIAL:10**- 9; GRID WGT:10**-14

 RADIAL INTEGRATION  - INTERVALS (POINTS,UPPER LIMIT):            1( 99,  4.0*R)

 ANGULAR INTEGRATION - INTERVALS (ACCURACY LEVEL [N. POINTS] UPPER LIMIT):
  1(  6[ 146]   0.2)  2( 11[ 302]   0.5)  3( 14[ 590]   0.9)  4( 18[1454]   3.5)
  5( 14[ 590]9999.0)
 EEEEEEEEEE INT_CALC TERMINATION  DATE 04 07 2024 TIME 23:55:16.9

 *******************************************************************************
 2D elastic properties                                                           
 CRYSTAL - SCF - TYPE OF CALCULATION :  RESTRICTED CLOSED SHELL
 *******************************************************************************

 CAPPA:IS1  3;IS2  3;IS3  1; K PTS MONK NET   3; SYMMOPS:K SPACE  24;G SPACE  12

 TTTTTTTTTTTTTTTTTTTTTTTTTTTTTT SDIK        TELAPSE       12.96 TCPU       10.68

 INFORMATION FROM INTEGRAL EVALUATION

 RESTART FROM A PREVIOUS DENSITY MATRIX - DEP ACTIVE
 NUMBER OF COUPLE SETS (NEW, OLD, FOUND):      20      20      20
 NUMBER OF IRREDUCIBLE G VECTORS        :      84      84      84

 *******************************************************************************
 LOCAL ATOMIC FUNCTIONS BASIS SET
 *******************************************************************************
   ATOM   X(AU)   Y(AU)   Z(AU)  N. TYPE  EXPONENT  S COEF   P COEF   D/F/G COEF
 *******************************************************************************
   1 C   -2.745   0.000   0.000
                                  1 S  
                                         3.048E+03 1.298E+00 0.000E+00 0.000E+00
                                         4.564E+02 2.406E+00 0.000E+00 0.000E+00
                                         1.037E+02 3.873E+00 0.000E+00 0.000E+00
                                         2.923E+01 5.020E+00 0.000E+00 0.000E+00
                                         9.349E+00 4.342E+00 0.000E+00 0.000E+00
                                         3.189E+00 1.501E+00 0.000E+00 0.000E+00
                           2-     5 SP 
                                         3.665E+00-1.817E+00 4.158E+00 0.000E+00
                                         7.705E-01 1.733E+00 2.154E+00 0.000E+00
                           6-     9 SP 
                                         2.600E-01 6.311E-01 6.436E-01 0.000E+00
                          10-    14 D  
                                         8.000E-01 0.000E+00 0.000E+00 2.709E+00
   2 C   -1.372  -2.377   0.000
 CHARGE NORMALIZATION FACTOR   1.00000000
 TOTAL ATOMIC CHARGES:
   6.0000000   6.0000000
 TTTTTTTTTTTTTTTTTTTTTTTTTTTTTT MOQGAD      TELAPSE       12.96 TCPU       10.69
 TTTTTTTTTTTTTTTTTTTTTTTTTTTTTT SHELLXN     TELAPSE       13.07 TCPU       10.79
 TTTTTTTTTTTTTTTTTTTTTTTTTTTTTT MONMO3      TELAPSE       13.07 TCPU       10.79
 NUMERICALLY INTEGRATED DENSITY     12.0000009832
 TTTTTTTTTTTTTTTTTTTTTTTTTTTTTT NUMDFT      TELAPSE       13.08 TCPU       10.81
 CYC   0 ETOT(AU) -7.599869533635E+01 DETOT -7.60E+01 tst  1.05E-15 PX  1.00E+00
 TTTTTTTTTTTTTTTTTTTTTTTTTTTTTT DIIS        TELAPSE       13.08 TCPU       10.81
 TTTTTTTTTTTTTTTTTTTTTTTTTTTTTT FDIK        TELAPSE       13.09 TCPU       10.81
 POSSIBLY CONDUCTING STATE - EFERMI(AU) -8.6774581E-02 (RES. CHARGE  1.78E-15;IT.  4)
 TTTTTTTTTTTTTTTTTTTTTTTTTTTTTT PDIG        TELAPSE       13.09 TCPU       10.81
 CHARGE NORMALIZATION FACTOR   1.00000000
 TOTAL ATOMIC CHARGES:
   6.0000000   6.0000000
 TTTTTTTTTTTTTTTTTTTTTTTTTTTTTT MOQGAD      TELAPSE       13.09 TCPU       10.81
 TTTTTTTTTTTTTTTTTTTTTTTTTTTTTT SHELLXN     TELAPSE       13.19 TCPU       10.91
 TTTTTTTTTTTTTTTTTTTTTTTTTTTTTT MONMO3      TELAPSE       13.19 TCPU       10.92
 NUMERICALLY INTEGRATED DENSITY     12.0000009832
 TTTTTTTTTTTTTTTTTTTTTTTTTTTTTT NUMDFT      TELAPSE       13.21 TCPU       10.93
 CYC   1 ETOT(AU) -7.599869533485E+01 DETOT  1.50E-09 tst  0.00E+00 PX  4.71E-10
 TTTTTTTTTTTTTTTTTTTTTTTTTTTTTT DIIS        TELAPSE       13.21 TCPU       10.93
 DIIS TEST: 0.85686E-19 AT SCF   CYCLE   1 - MIX   30 %
 TTTTTTTTTTTTTTTTTTTTTTTTTTTTTT FDIK        TELAPSE       13.21 TCPU       10.93
 POSSIBLY CONDUCTING STATE - EFERMI(AU) -8.6774581E-02 (RES. CHARGE  0.00E+00;IT.  4)
 TTTTTTTTTTTTTTTTTTTTTTTTTTTTTT PDIG        TELAPSE       13.21 TCPU       10.93
 CHARGE NORMALIZATION FACTOR   1.00000000
 TOTAL ATOMIC CHARGES:
   6.0000000   6.0000000
 TTTTTTTTTTTTTTTTTTTTTTTTTTTTTT MOQGAD      TELAPSE       13.21 TCPU       10.93
 TTTTTTTTTTTTTTTTTTTTTTTTTTTTTT SHELLXN     TELAPSE       13.32 TCPU       11.04
 TTTTTTTTTTTTTTTTTTTTTTTTTTTTTT MONMO3      TELAPSE       13.32 TCPU       11.04
 NUMERICALLY INTEGRATED DENSITY     12.0000009832
 TTTTTTTTTTTTTTTTTTTTTTTTTTTTTT NUMDFT      TELAPSE       13.33 TCPU       11.05
 CYC   2 ETOT(AU) -7.599869533485E+01 DETOT -1.42E-14 tst  3.74E-21 PX  6.33E-11
 TTTTTTTTTTTTTTTTTTTTTTTTTTTTTT DIIS        TELAPSE       13.33 TCPU       11.05
 DIIS TEST: 0.13772E-19 AT SCF   CYCLE   2 - DIIS ACTIVE - HISTORY:     2 CYCLES
 TTTTTTTTTTTTTTTTTTTTTTTTTTTTTT FDIK        TELAPSE       13.33 TCPU       11.05
 POSSIBLY CONDUCTING STATE - EFERMI(AU) -8.6774581E-02 (RES. CHARGE  0.00E+00;IT.  4)
 TTTTTTTTTTTTTTTTTTTTTTTTTTTTTT PDIG        TELAPSE       13.33 TCPU       11.05
 CHARGE NORMALIZATION FACTOR   1.00000000
 TOTAL ATOMIC CHARGES:
   6.0000000   6.0000000
 TTTTTTTTTTTTTTTTTTTTTTTTTTTTTT MOQGAD      TELAPSE       13.34 TCPU       11.05
 TTTTTTTTTTTTTTTTTTTTTTTTTTTTTT SHELLXN     TELAPSE       13.44 TCPU       11.16

 ::: DIPOLE MOMENT ALONG NON PERIODIC DIRECTIONS:
 ::: A.U.     (Z)  1.04924E-07
 ::: DEBYE        -2.66690E-07

 +++ ENERGIES IN A.U. +++
 ::: EXT EL-POLE                                  -1.6701892221588E+02
 ::: EXT EL-SPHEROPOLE                             0.0000000000000E+00
 ::: BIELET ZONE E-E                               1.5740082225603E+02
 ::: TOTAL E-E                                    -9.6180999598498E+00
 ::: TOTAL E-N + N-E                              -9.0189434920165E+01
 ::: TOTAL N-N                                    -4.3580833190459E+01
 ::: KINETIC ENERGY                                7.5783053409734E+01
 ::: PSEUDO TOTAL   ENERGY                        -6.7605314660740E+01
 ::: VIRIAL COEFFICIENT                            1.0570320930424E+00
 TTTTTTTTTTTTTTTTTTTTTTTTTTTTTT MONMO3      TELAPSE       13.44 TCPU       11.16
 NUMERICALLY INTEGRATED DENSITY     12.0000009832
 EXCHANGE ENERGY: -0.797279994110E+01  CORRELATION ENERGY: -0.420580733013E+00
 TTTTTTTTTTTTTTTTTTTTTTTTTTTTTT NUMDFT      TELAPSE       13.46 TCPU       11.18
 CYC   3 ETOT(AU) -7.599869533485E+01 DETOT  1.42E-13 tst  2.66E-22 PX  6.33E-11

 == SCF ENDED - CONVERGENCE ON ENERGY      E(AU) -7.5998695334850E+01 CYCLES   3


 ENERGY EXPRESSION=HARTREE+FOCK EXCH*0.00000+(HSE06      EXCH)*1.00000+PBE        CORR

 FINITE TEMPERATURE DFT CALCULATION 
 TEMPERATURE      (T)    1.000000000000E-04 HARTREE 
 ENERGY           (E)   -7.599869533485E+01
 FREE ENERGY      (F)   -7.599870218075E+01
 ELECTRON ENTROPY (S)    6.845898079604E-02
 (E(T)+F(T))/2    (E0)  -7.599869875780E+01


 TOTAL ENERGY(DFT)(AU)(  3) -7.5998698757799E+01 DE 1.4E-13 tester 2.7E-22
 TTTTTTTTTTTTTTTTTTTTTTTTTTTTTT EDFT        TELAPSE       13.46 TCPU       11.18
 WARNING **** SCF **** SMEAR: ANALYTICAL GRADIENT IS THE FREE ENERGY DERIVATIVE

 *******************************************************************************
 *                             FORCE CALCULATION                               *
 *******************************************************************************

 TTTTTTTTTTTTTTTTTTTTTTTTTTTTTT NUMDFG      TELAPSE       13.49 TCPU       11.20
 INFORMATION **** GENPOG **** BIPO BUFFER LENGTH (WORDS) =       27800
 TTTTTTTTTTTTTTTTTTTTTTTTTTTTTT SHELXG      TELAPSE       14.09 TCPU       11.81

 CARTESIAN FORCES IN HARTREE/BOHR (ANALYTICAL)
   ATOM                     X                   Y                   Z
   1   6             1.230262480426E-16 -1.611842227143E-15 -9.896597430448E-16
   2   6            -1.230262480426E-16  1.685857095451E-15 -9.896597430448E-16

 RESULTANT FORCE     0.000000000000E+00  7.401486830834E-17 -1.979319486090E-15

 ATOMIC PART

 THERE ARE NO SYMMETRY ALLOWED DIRECTIONS

 CELL PART

 GRADIENT WITH RESPECT TO THE CELL PARAMETER IN HARTREE/BOHR
 ORDER: -D/DA1X, -D/DA1Y
       -D/DA2X, -D/DA2Y

 -0.784738043791E-05  0.656592171959E-15
 -0.392369021762E-05 -0.679603080922E-05

 SYMMETRY ALLOWED FORCES (ANALYTICAL) (DIRECTION, FORCE)

    1 -4.5695255E-05
 TTTTTTTTTTTTTTTTTTTTTTTTTTTTTT TOTGRA      TELAPSE       14.10 TCPU       11.81

 VOLUME OF THE CELL:   0.148185

 DENSITY OF THE CRYSTAL =        268.9409 g/cm^3

 STRAIN MATRIX   1 :

  |   1.0   0.0 |
  |   0.0   0.0 |
  

   DISPL        ENERGY              DELTA E

 -0.0100   -7.6071252671E+01   -4.0151605784E-02
 WARNING **** ELAPIEZO **** ENERGY OF DISPLACED GEOM. IS LOWER THAN ENERGY OF REF. GEOM.
  0.0000   -7.6031101065E+01    0.0000000000E+00
  0.0100   -7.6067474204E+01   -3.6373139446E-02
 WARNING **** ELAPIEZO **** ENERGY OF DISPLACED GEOM. IS LOWER THAN ENERGY OF REF. GEOM.
  ELASTIC TENSOR CONSTANTS 
 c11 =               4.27336061 hartree
 c12 =               0.52903029 hartree
 c16 =               0.00000000 hartree

 ************************************************************************
 ************************************************************************
                           FINAL RESULTS START
 ************************************************************************
 ************************************************************************

 THE CALCULATION HAS BEEN PERFORMED WITH   3 POINTS AND
 A STEP OF     0.01000
 THIS PERMITS TO PERFORM A FITTING UP TO SECOND   ORDER

 DATA FOR MAXIMUM NUMBER OF POINTS AND ORDER OF FIT

 SYMMETRIZED ELASTIC CONSTANTS FOR HEXAGONAL    CASE, IN HARTREE

 |     4.273    0.529    0.000 |
 |              4.273    0.000 |
 |                       1.872 |


 ************************************************************************
 ************************************************************************
                           FINAL RESULTS END
 ************************************************************************
 ************************************************************************

 TTTTTTTTTTTTTTTTTTTTTTTTTTTTTT END         TELAPSE       64.93 TCPU       61.31
 EEEEEEEEEE TERMINATION  DATE 04 07 2024 TIME 23:56:08.9
Note: The following floating-point exceptions are signalling: IEEE_UNDERFLOW_FLAG IEEE_DENORMAL
Note: The following floating-point exceptions are signalling: IEEE_UNDERFLOW_FLAG IEEE_DENORMAL
Note: The following floating-point exceptions are signalling: IEEE_UNDERFLOW_FLAG IEEE_DENORMAL
Note: The following floating-point exceptions are signalling: IEEE_UNDERFLOW_FLAG IEEE_DENORMAL
Note: The following floating-point exceptions are signalling: IEEE_UNDERFLOW_FLAG IEEE_DENORMAL
Note: The following floating-point exceptions are signalling: IEEE_UNDERFLOW_FLAG IEEE_DENORMAL
Note: The following floating-point exceptions are signalling: IEEE_UNDERFLOW_FLAG IEEE_DENORMAL
Note: The following floating-point exceptions are signalling: IEEE_UNDERFLOW_FLAG IEEE_DENORMAL
Note: The following floating-point exceptions are signalling: IEEE_UNDERFLOW_FLAG IEEE_DENORMAL
Note: The following floating-point exceptions are signalling: IEEE_UNDERFLOW_FLAG IEEE_DENORMAL
Note: The following floating-point exceptions are signalling: IEEE_UNDERFLOW_FLAG IEEE_DENORMAL
Note: The following floating-point exceptions are signalling: IEEE_UNDERFLOW_FLAG IEEE_DENORMAL
Note: The following floating-point exceptions are signalling: IEEE_UNDERFLOW_FLAG IEEE_DENORMAL
Note: The following floating-point exceptions are signalling: IEEE_UNDERFLOW_FLAG IEEE_DENORMAL
Note: The following floating-point exceptions are signalling: IEEE_UNDERFLOW_FLAG IEEE_DENORMAL
Note: The following floating-point exceptions are signalling: IEEE_UNDERFLOW_FLAG IEEE_DENORMAL
Note: The following floating-point exceptions are signalling: IEEE_UNDERFLOW_FLAG IEEE_DENORMAL
Note: The following floating-point exceptions are signalling: IEEE_UNDERFLOW_FLAG IEEE_DENORMAL
Note: The following floating-point exceptions are signalling: IEEE_UNDERFLOW_FLAG IEEE_DENORMAL
Note: The following floating-point exceptions are signalling: IEEE_UNDERFLOW_FLAG IEEE_DENORMAL
Note: The following floating-point exceptions are signalling: IEEE_UNDERFLOW_FLAG IEEE_DENORMAL
Note: The following floating-point exceptions are signalling: IEEE_UNDERFLOW_FLAG IEEE_DENORMAL
Note: The following floating-point exceptions are signalling: IEEE_UNDERFLOW_FLAG IEEE_DENORMAL
Note: The following floating-point exceptions are signalling: IEEE_UNDERFLOW_FLAG IEEE_DENORMAL
Note: The following floating-point exceptions are signalling: IEEE_UNDERFLOW_FLAG IEEE_DENORMAL
Note: The following floating-point exceptions are signalling: IEEE_UNDERFLOW_FLAG IEEE_DENORMAL
Note: The following floating-point exceptions are signalling: IEEE_UNDERFLOW_FLAG IEEE_DENORMAL
Note: The following floating-point exceptions are signalling: IEEE_UNDERFLOW_FLAG IEEE_DENORMAL
Note: The following floating-point exceptions are signalling: IEEE_UNDERFLOW_FLAG IEEE_DENORMAL
Note: The following floating-point exceptions are signalling: IEEE_UNDERFLOW_FLAG IEEE_DENORMAL
Note: The following floating-point exceptions are signalling: IEEE_UNDERFLOW_FLAG IEEE_DENORMAL
Note: The following floating-point exceptions are signalling: IEEE_UNDERFLOW_FLAG IEEE_DENORMAL
Note: The following floating-point exceptions are signalling: IEEE_UNDERFLOW_FLAG IEEE_DENORMAL
Note: The following floating-point exceptions are signalling: IEEE_UNDERFLOW_FLAG IEEE_DENORMAL
Note: The following floating-point exceptions are signalling: IEEE_UNDERFLOW_FLAG IEEE_DENORMAL
Note: The following floating-point exceptions are signalling: IEEE_UNDERFLOW_FLAG IEEE_DENORMAL
Note: The following floating-point exceptions are signalling: IEEE_UNDERFLOW_FLAG IEEE_DENORMAL
Note: The following floating-point exceptions are signalling: IEEE_UNDERFLOW_FLAG IEEE_DENORMAL
Note: The following floating-point exceptions are signalling: IEEE_UNDERFLOW_FLAG IEEE_DENORMAL
Note: The following floating-point exceptions are signalling: IEEE_UNDERFLOW_FLAG IEEE_DENORMAL
Note: The following floating-point exceptions are signalling: IEEE_UNDERFLOW_FLAG IEEE_DENORMAL
Note: The following floating-point exceptions are signalling: IEEE_UNDERFLOW_FLAG IEEE_DENORMAL
Note: The following floating-point exceptions are signalling: IEEE_UNDERFLOW_FLAG IEEE_DENORMAL
Note: The following floating-point exceptions are signalling: IEEE_UNDERFLOW_FLAG IEEE_DENORMAL
Note: The following floating-point exceptions are signalling: IEEE_UNDERFLOW_FLAG IEEE_DENORMAL
Note: The following floating-point exceptions are signalling: IEEE_UNDERFLOW_FLAG IEEE_DENORMAL
Note: The following floating-point exceptions are signalling: IEEE_UNDERFLOW_FLAG IEEE_DENORMAL
Note: The following floating-point exceptions are signalling: IEEE_UNDERFLOW_FLAG IEEE_DENORMAL
Note: The following floating-point exceptions are signalling: IEEE_UNDERFLOW_FLAG IEEE_DENORMAL
Note: The following floating-point exceptions are signalling: IEEE_UNDERFLOW_FLAG IEEE_DENORMAL
Note: The following floating-point exceptions are signalling: IEEE_UNDERFLOW_FLAG IEEE_DENORMAL
Note: The following floating-point exceptions are signalling: IEEE_UNDERFLOW_FLAG IEEE_DENORMAL
Note: The following floating-point exceptions are signalling: IEEE_UNDERFLOW_FLAG IEEE_DENORMAL
Note: The following floating-point exceptions are signalling: IEEE_UNDERFLOW_FLAG IEEE_DENORMAL
Note: The following floating-point exceptions are signalling: IEEE_UNDERFLOW_FLAG IEEE_DENORMAL
Note: The following floating-point exceptions are signalling: IEEE_UNDERFLOW_FLAG IEEE_DENORMAL
Note: The following floating-point exceptions are signalling: IEEE_UNDERFLOW_FLAG IEEE_DENORMAL
Note: The following floating-point exceptions are signalling: IEEE_UNDERFLOW_FLAG IEEE_DENORMAL
Note: The following floating-point exceptions are signalling: IEEE_UNDERFLOW_FLAG IEEE_DENORMAL
Note: The following floating-point exceptions are signalling: IEEE_UNDERFLOW_FLAG IEEE_DENORMAL
Note: The following floating-point exceptions are signalling: IEEE_UNDERFLOW_FLAG IEEE_DENORMAL
Note: The following floating-point exceptions are signalling: IEEE_UNDERFLOW_FLAG IEEE_DENORMAL
Note: The following floating-point exceptions are signalling: IEEE_UNDERFLOW_FLAG IEEE_DENORMAL
Note: The following floating-point exceptions are signalling: IEEE_UNDERFLOW_FLAG IEEE_DENORMAL

DATE END   : Thu  4 Jul 23:56:09 BST 2024
Script run_exec done.
============================================

============================================
Post Processing Report
--------------------------------------------
Begining of post processing : Thu  4 Jul 23:56:10 BST 2024
List of saved files from Node 0
  TEMPORARY            SAVED
  fort.34              elastic2D_graphene.gui                                1366     Jul 4 23:56
  fort.33              elastic2D_graphene.xyz                                4027     Jul 4 23:56
  fort.9               elastic2D_graphene.f9                                 111276   Jul 4 23:56
  fort.98              elastic2D_graphene.f98                                768232   Jul 4 23:56
  SCFOUT.LOG           elastic2D_graphene.SCFLOG                             247914   Jul 4 23:56
  OPTINFO.DAT          elastic2D_graphene.OPTINFO                            835509   Jul 4 23:56
  HESSOPT.DAT          elastic2D_graphene.HESSOPT                            22       Jul 4 23:56
  opta001              elastic2D_graphene.optstory/opta001                   1366     Jul 4 23:55
  opta003              elastic2D_graphene.optstory/opta003                   1366     Jul 4 23:55
  optc005              elastic2D_graphene.optstory/optc005                   3318     Jul 4 23:55
  optc002              elastic2D_graphene.optstory/optc002                   3318     Jul 4 23:55
  optc004              elastic2D_graphene.optstory/optc004                   3318     Jul 4 23:55
  opta002              elastic2D_graphene.optstory/opta002                   1366     Jul 4 23:55
  opta004              elastic2D_graphene.optstory/opta004                   1366     Jul 4 23:56
  optc001              elastic2D_graphene.optstory/optc001                   3318     Jul 4 23:55
  optc003              elastic2D_graphene.optstory/optc003                   3318     Jul 4 23:55
  opta005              elastic2D_graphene.optstory/opta005                   1366     Jul 4 23:56
  fort.13              elastic2D_graphene.f13                                128376   Jul 4 23:56
--------------------------------------------

Temporary Directory Disk Info
--------------------------------------------
  Temporary directory      : /gpfs/home/hz1420/tmp/elastic2D_graphene_86939

  Disk usage (df -h)
Filesystem      Size  Used Avail Use% Mounted on
gpfs            2.1P  117T  2.0P   6% /gpfs

  Usage by folders (du -m)
1219	/gpfs/home/hz1420/tmp/elastic2D_graphene_86939

  Detailed file list of Node 0(ls -l .)
    see /gpfs/home/hz1420/elastic/elastic2D_graphene.log file
--------------------------------------------

End of post processing : Thu  4 Jul 23:56:10 BST 2024
Script post_proc done.
===========================================
