date Fri 3 Jun 2022 18:42:38 BST
hostname MacBook-Pro-4.local
system Darwin MacBook-Pro-4.local 21.4.0 Darwin Kernel Version 21.4.0: Fri Mar 18 00:47:26 PDT 2022; root:xnu-8020.101.4~15/RELEASE_ARM64_T8101 arm64
user brunocamino
output data in /Users/brunocamino/Desktop/Imperial/crystal-code-tools/CRYSTALpy/examples/data/co.out
crystal executable in /Users/brunocamino/crystal
input data in /Users/brunocamino/Desktop/Imperial/crystal-code-tools/CRYSTALpy/examples/data/co.d12
temporary directory /Users/brunocamino/crystal/tmp
external geometry input from /Users/brunocamino/Desktop/Imperial/crystal-code-tools/CRYSTALpy/examples/data/co.gui
external geometry input saved in /Users/brunocamino/Desktop/Imperial/crystal-code-tools/CRYSTALpy/examples/data/co_inp.gui
Molecule test
MOLECULE
1 
2 
6 0. 0. 0. 
8 0.8 0.5 0.4
OPTGEOM
END
BASISSET
STO-3G
DFT
B3LYP
END
TOLINTEG
7 7 7 7 14
MAXCYCLE
500
TOLDEE
7
ENDSCF

         
 *******************************************************************************
 *                                                                             *
 *                               CRYSTAL17                                     *
 *                      public : 1.0.2 - March 1st, 2018                       *
 *                       HTTP://WWW.CRYSTAL.UNITO.IT                           *
 *                                                                             *
 *                              MAIN AUTHORS                                   *
 *                                                                             *
 *  R. DOVESI(1,11), V.R. SAUNDERS(2), C. ROETTI(1,11), R. ORLANDO(1,11),      *
 *  C.M. ZICOVICH-WILSON(1,3), F. PASCALE(4), B. CIVALLERI(1,11),              *
 *  K. DOLL(5), N.M. HARRISON(2,6), I.J. BUSH(7), Ph. D'ARCO(8),               *
 *  M. LLUNELL(9), M. CAUSA'(10), Y. NOEL(8), L. MASCHIO(1,11), A. ERBA(1,11)  *
 *  M. RE'RAT(14), S. CASASSA(1,11)                                            *
 *                                                                             *
 *        CONTRIBUTIONS TO THE CODE HAVE ALSO BEEN GIVEN BY                    *
 *                                                                             *
 *  M. FERRABONE(1,11), M. DE LA PIERRE(1,11), M. FERRERO(1,11),               *
 *  J. BAIMA(1,11), E. ALBANESE(1,11), M.F. PEINTINGER(12), R. BAST(13),       *
 *  B. KIRTMAN(15), V. LACIVITA(1,11), R. DEMICHELIS(1,16)                     *
 *  G. BRANDEBURG(17), S. SALUSTRO(1,11), G. SANSONE(1,11)                     *
 *  M.T. RUGGIERO(18)                                                          *
 *                                                                             *
 * (1) THEORETICAL CHEMISTRY GROUP - UNIVERSITA' DI TORINO - TORINO (ITALY)    *
 * (2) COMPUTATIONAL SCIENCE & ENGINEERING DEPARTMENT - STFC DARESBURY (UK)    *
 * (3) UNIVERSIDAD AUTONOMA DEL ESTADO DE MORELOS - CUERNAVACA (MEXICO)        *
 * (4) UNIVERSITE' DE LORRAINE - NANCY (FRANCE)                                *
 * (5) UNIVERSITAET STUTTGART- STUTTGART (GERMANY)                             *
 * (6) IMPERIAL COLLEGE - LONDON (UK)                                          *
 * (7) OXFORD E-RESEARCH CENTRE - OXFORD (UK)                                  *
 * (8) UPMC - SORBONNE UNIVERSITES - PARIS (FRANCE)                            *
 * (9) UNIVERSIDAD DE BARCELONA - BARCELONA (SPAIN)                            *
 *(10) UNIVERSITA' DI NAPOLI "FEDERICO II" - NAPOLI (ITALY)                    *
 *(11) NIS - NANOSTRUCTURED INTERFACES AND SURFACES - TORINO (ITALY)           *
 *(12) MPI FUER CHEMISCHE ENERGIEKONVERSION - MUELHEIM AN DER RUHR (GERMANY)   *
 *(13) UNIVERSITY OF TROMSO - TROMSO (NORWAY)                                  *
 *(14) UNIVERSITE' DE PAU ET DES PAYS DE L'ADOUR - PAU (FRANCE)                *
 *(15) UNIVERSITY OF CALIFORNIA SANTA BARBARA - SANTA BARBARA (USA)            *
 *(16) CURTIN UNIVERSITY - PERTH (AUSTRALIA)                                   *
 *(17) UNIVERSITY COLLEGE LONDON - LONDON (UK)                                 *
 *(18) CAMBRIDGE UNIVERSITY - CAMBRIDGE (UK)                                   *
 *                                                                             *
 *******************************************************************************
 EEEEEEEEEE STARTING  DATE 03 06 2022 TIME 18:42:38.6
 Molecule test                                                                   

 MOLECULAR CALCULATION
 POINT  GROUP  N.  1                  :  1      OR  C1   
 CORRESPONDING SPACE GROUP            :  P 1             


 NUMBER OF IRREDUCIBLE ATOMS IN THE CONVENTIONAL CELL:    2

 INPUT COORDINATES

 ATOM AT. N.              COORDINATES
   1   6     0.000000000000E+00  0.000000000000E+00  0.000000000000E+00
   2   8     8.000000000000E-01  5.000000000000E-01  4.000000000000E-01

 COORDINATES OF THE EQUIVALENT ATOMS (ANGSTROMS)

 N. ATOM EQUIV AT. N.          X                  Y                  Z

   1   1   1    6 C     0.00000000000E+00  0.00000000000E+00  0.00000000000E+00

   2   2   1    8 O     8.00000000000E-01  5.00000000000E-01  4.00000000000E-01

 NUMBER OF SYMMETRY OPERATORS         :    1
 *******************************************************************************
 * GEOMETRY EDITING - INPUT COORDINATES ARE GIVEN IN ANGSTROM         
 *******************************************************************************
 INFORMATION **** NEW DEFAULT **** FINALRUN 4 FOR GEOMETRY OPTIMIZATIONS
 INFORMATION **** NEW DEFAULT **** OPTGEOM OPTIMIZES BOTH ATOMIC COORDINATES AND CELL PARAMETERS
 INFORMATION **** NEW DEFAULT **** TOL. ON ATOMIC DISP TO REDEFINE REF. GEOMETRY: 0.8 Angs
 INFORMATION **** NEW DEFAULT **** N POINTS TO REDEFINE REF. GEOMETRY: N OF OPT DEGS OF FREEDOM
 INFORMATION **** NEW DEFAULT **** TOL. ON ENERGY TO REDEFINE REF. GEOMETRY: 10**-3*(5*N. ATOMS)

 IMPORTANT INFORMATION:
 THE COORDINATE SYSTEM ADOPTED IN THE OPTIMIZATION IS NOT IN
 GENERAL HOMOGENEOUS UNITS. FOR THIS REASON THE GRADIENT AND 
 HESSIAN MATRIX IN TERMS OF THIS SYSTEM ARE GIVEN WITHOUT
 UNITS. FOR MORE DETAILS SEE THE MANUAL.

 *******************************************************************************
 ATOMIC POSITIONS OPTIMIZATION CONTROL

 INITIAL TRUST RADIUS         0.50000 MAXIMUM TRUST RADIUS               4.00000
 MAXIMUM GRADIENT COMPONENT   0.00045 MAXIMUM DISPLACEMENT COMPONENT     0.00180
 R.M.S. OF GRADIENT COMPONENT 0.00030 R.M.S. OF DISPLACEMENT COMPONENTS  0.00120
 THRESHOLD ON ENERGY CHANGE 0.100E-06 EXTRAPOLATING POLYNOMIAL ORDER           2
 MAXIMUM ALLOWED NUMBER OF STEPS   -1 SORTING OF ENERGY POINTS:               NO
 ANALYTICAL  GRADIENT                 HESSIAN UPDATING                      BFGS
 STEP SIZE NUMERICAL GRADIENT 0.00100
 INITIAL HESSIAN MATRIX: SCHLEGEL MODEL 2
 *******************************************************************************


 GEOMETRY FOR WAVE FUNCTION - DIMENSIONALITY OF THE SYSTEM    0
 (NON PERIODIC DIRECTION: LATTICE PARAMETER FORMALLY SET TO 500)
 *******************************************************************************
 ATOMS IN THE ASYMMETRIC UNIT    2 - ATOMS IN THE UNIT CELL:    2
     ATOM             X(ANGSTROM)         Y(ANGSTROM)         Z(ANGSTROM)
 *******************************************************************************
      1 T   6 C     0.000000000000E+00  0.000000000000E+00  0.000000000000E+00
      2 T   8 O     8.000000000000E-01  5.000000000000E-01  4.000000000000E-01

 T = ATOM BELONGING TO THE ASYMMETRIC UNIT

 ****    1 SYMMOPS - TRANSLATORS IN FRACTIONAL UNITS
 **** MATRICES AND TRANSLATORS IN THE CRYSTALLOGRAPHIC REFERENCE FRAME
   V INV                    ROTATION MATRICES                   TRANSLATORS
   1   1  1.00  0.00  0.00  0.00  1.00  0.00  0.00  0.00  1.00  0.00  0.00  0.00

 *******************************************************************************
 STARTING BASIS SET HANDLING 
 *******************************************************************************

 Loading internal basis set: STO-3G              

 Please cite in your publication:
 H - Ne: W.J. Hehre, R.F. Stewart and J.A. Pople, J. Chem. Phys. 2657 (1969).   
                                                                                
                                                                                
                    
 Na - Ar: W.J. Hehre, R. Ditchfield, R.F. Stewart, J.A. Pople, J. Chem. Phys.  2
 769 (1970).                                                                    
                                                                                
                    
 K,Ca: W.J. Pietro, B.A. Levy, W.J. Hehre and R.F. Stewart, Inorg. Chem., 1980, 
 19 (8), pp 2225-2229                                                           
                                                                                
                    
 Ga-Kr: J. Am. Chem. Soc. 19, 2225 (1980).                                      
                                                                                
                                                                                
                    
 Sc-Zn, Y-Cd: W.J. Pietro and W.J. Hehre, J. Comp. Chem. 4, 241 (1983).         
                                                                                
                                                                                
                    

 *******************************************************************************
 LOCAL ATOMIC FUNCTIONS BASIS SET
 *******************************************************************************
   ATOM   X(AU)   Y(AU)   Z(AU)  N. TYPE  EXPONENT  S COEF   P COEF   D/F/G COEF
 *******************************************************************************
   1 C    0.000   0.000   0.000
                                  1 S  
                                         7.162E+01 1.543E-01 0.000E+00 0.000E+00
                                         1.305E+01 5.353E-01 0.000E+00 0.000E+00
                                         3.531E+00 4.446E-01 0.000E+00 0.000E+00
                                  2 S  
                                         2.941E+00-9.997E-02 0.000E+00 0.000E+00
                                         6.835E-01 3.995E-01 0.000E+00 0.000E+00
                                         2.223E-01 7.001E-01 0.000E+00 0.000E+00
                           3-     5 P  
                                         2.941E+00 0.000E+00 1.559E-01 0.000E+00
                                         6.835E-01 0.000E+00 6.077E-01 0.000E+00
                                         2.223E-01 0.000E+00 3.920E-01 0.000E+00
   2 O    1.512   0.945   0.756
                                  6 S  
                                         1.307E+02 1.543E-01 0.000E+00 0.000E+00
                                         2.381E+01 5.353E-01 0.000E+00 0.000E+00
                                         6.444E+00 4.446E-01 0.000E+00 0.000E+00
                                  7 S  
                                         5.033E+00-9.997E-02 0.000E+00 0.000E+00
                                         1.170E+00 3.995E-01 0.000E+00 0.000E+00
                                         3.804E-01 7.001E-01 0.000E+00 0.000E+00
                           8-    10 P  
                                         5.033E+00 0.000E+00 1.559E-01 0.000E+00
                                         1.170E+00 0.000E+00 6.077E-01 0.000E+00
                                         3.804E-01 0.000E+00 3.920E-01 0.000E+00

 *******************************************************************************
 FINISHED BASIS SET HANDLING 
 *******************************************************************************

 INFORMATION **** SET_MPP **** PCRYSTAL CALCULATION
 INFORMATION **** READM2 **** NEW DEFAULT: FOCK/KS MATRIX MIXING SET TO 30 %
 INFORMATION **** READM2 **** NEW DEFAULT: FULL DIRECT SCF MODE
 INFORMATION **** READM2 **** NEW DEFAULT: COULOMB BIPOLAR BUFFER SET TO 32 Mb
 INFORMATION **** READM2 **** NEW DEFAULT: EXCHANGE BIPOLAR BUFFER SET TO 32 Mb

 *******************************************************************************
 NEW DEFAULT: DFT INTEGRATION GRID INCREASED TO XLGRID
 NEW DEFAULT: DIIS ACCELERATOR ACTIVE
 USE KEYWORD NODIIS TO TURN IT OFF
 *******************************************************************************

 INFORMATION **** TOLINTEG **** COULOMB AND EXCHANGE SERIES TOLERANCES MODIFIED
 INFORMATION **** MAXCYCLE **** MAX NUMBER OF SCF CYCLES SET TO         500
 INFORMATION **** TOLDEE **** SCF TOL ON TOTAL ENERGY SET TO           7
 *******************************************************************************
 N. OF ATOMS PER CELL         2  COULOMB OVERLAP TOL         (T1) 10**   -7
 NUMBER OF SHELLS             6  COULOMB PENETRATION TOL     (T2) 10**   -7
 NUMBER OF AO                10  EXCHANGE OVERLAP TOL        (T3) 10**   -7
 N. OF ELECTRONS PER CELL    14  EXCHANGE PSEUDO OVP (F(G))  (T4) 10**   -7
 CORE ELECTRONS PER CELL      4  EXCHANGE PSEUDO OVP (P(G))  (T5) 10**  -14
 N. OF SYMMETRY OPERATORS     1  POLE ORDER IN MONO ZONE                  4
 *******************************************************************************
 TYPE OF CALCULATION :  RESTRICTED CLOSED SHELL
 KOHN-SHAM HAMILTONIAN

 (EXCHANGE)[CORRELATION] FUNCTIONAL:(BECKE 88)[LEE-YANG-PARR]

 NON-LOCAL WEIGHTING FACTOR (EXCHANGE) =           0.9000
 NON-LOCAL WEIGHTING FACTOR [CORRELATION] =        0.8100

 HYBRID EXCHANGE - PERCENTAGE OF FOCK EXCHANGE    20.0000

 CAPPA:IS1  1;IS2  1;IS3  1; K PTS MONK NET   1; SYMMOPS:K SPACE   2;G SPACE   1

 *******************************************************************************
 MAX NUMBER OF SCF CYCLES     500  CONVERGENCE ON DELTAP        10**-17
 WEIGHT OF F(I) IN F(I+1)      30% CONVERGENCE ON ENERGY        10**- 7

 DISK SPACE FOR EIGENVECTORS (FTN 10)         100 REALS

 SYMMETRY ADAPTION OF THE BLOCH FUNCTIONS DISABLED
 TTTTTTTTTTTTTTTTTTTTTTTTTTTTTT gordsh1     TELAPSE        0.03 TCPU        0.01

 MATRIX SIZE: P(G)     100, F(G)      55, P(G) IRR      61, F(G) IRR      61
 MAX G-VECTOR INDEX FOR 1- AND 2-ELECTRON INTEGRALS   1

 TTTTTTTTTTTTTTTTTTTTTTTTTTTTTT INPUT       TELAPSE        0.03 TCPU        0.01

 NEIGHBORS OF THE NON-EQUIVALENT ATOMS

 N = NUMBER OF NEIGHBORS AT DISTANCE R
    ATOM  N     R/ANG      R/AU   NEIGHBORS (ATOM LABELS AND CELL INDICES)
   1 C    1     1.0247     1.9364    2 O    0 0 0

   2 O    1     1.0247     1.9364    1 C    0 0 0


 SYMMETRY ALLOWED INTERNAL DEGREE(S) OF FREEDOM:   1
 TTTTTTTTTTTTTTTTTTTTTTTTTTTTTT SYMM        TELAPSE        0.03 TCPU        0.01
 TTTTTTTTTTTTTTTTTTTTTTTTTTTTTT INT_SCREEN  TELAPSE        0.03 TCPU        0.01

 *******************************************************************************
 *                             OPTIMIZATION STARTS                             *
 *******************************************************************************
 RECLASIFICATION OF INDICES FOR INTEGRAL CALC ACCORDING TO DIFFERENT CRITERIA:
           FIXDELTE                  FIXDELTX              FIXDELTN
          0.10000000E-01           0.80000000                 10
 DEFAULT MAX NUM OF POINTS  100
 *******************************************************************************

 *******************************************************************************
 COORDINATE OPTIMIZATION - POINT    1
 INFORMATION **** EXCBUF **** EXCH. BIPO BUFFER: WORDS USED =        1440

 DFT PARAMETERS

     ATOM       ELECTRONS   NET CHARGE   R(ANGSTROM)
   1   6  C       6.0000      0.0000     0.77000000
   2   8  O       8.0000      0.0000     0.74000000

 SIZE OF GRID=      71435
 TTTTTTTTTTTTTTTTTTTTTTTTTTTTTT MAKE_GRID2  TELAPSE        0.04 TCPU        0.02
 BECKE WEIGHT FUNCTION
 RADSAFE =     2.00
 TOLERANCES - DENSITY:10**- 6; POTENTIAL:10**- 9; GRID WGT:10**-14

 RADIAL INTEGRATION  - INTERVALS (POINTS,UPPER LIMIT):            1( 75,  4.0*R)

 ANGULAR INTEGRATION - INTERVALS (ACCURACY LEVEL [N. POINTS] UPPER LIMIT):
  1(  4[  86]   0.2)  2(  8[ 194]   0.5)  3( 12[ 350]   0.9)  4( 16[ 974]   3.5)
  5( 12[ 350]9999.0)
 TTTTTTTTTTTTTTTTTTTTTTTTTTTTTT INT_CALC    TELAPSE        0.04 TCPU        0.02

 *******************************************************************************
 Molecule test                                                                   
 CRYSTAL - SCF - TYPE OF CALCULATION :  RESTRICTED CLOSED SHELL
 *******************************************************************************

 CAPPA:IS1  1;IS2  1;IS3  1; K PTS MONK NET   1; SYMMOPS:K SPACE   2;G SPACE   1

 TTTTTTTTTTTTTTTTTTTTTTTTTTTTTT SDIK        TELAPSE        0.05 TCPU        0.02

 AAAAAAAAAAAAAAAAAAAAAAAAAAAAAAAAAAAAAAAAAAAAAAAAAAAAAAAAAAAAAAAAAAAAAAAAAAAAAAA
         ATOMIC WAVEFUNCTION(S)


 NUCLEAR CHARGE  6.0  SYMMETRY SPECIES            S    P
 N. ELECTRONS    6.0  NUMBER OF PRIMITIVE GTOS    6    3
                      NUMBER OF CONTRACTED GTOS   2    1
                      NUMBER OF CLOSED SHELLS     2    0
                      OPEN SHELL OCCUPATION       0    2

  ZNUC SCFIT  TOTAL HF ENERGY   KINETIC ENERGY   VIRIAL THEOREM ACCURACY
   6.0   1   -3.719839256E+01  3.792455656E+01 -1.980852406E+00  0.0E+00

 NUCLEAR CHARGE  8.0  SYMMETRY SPECIES            S    P
 N. ELECTRONS    8.0  NUMBER OF PRIMITIVE GTOS    6    3
                      NUMBER OF CONTRACTED GTOS   2    1
                      NUMBER OF CLOSED SHELLS     2    0
                      OPEN SHELL OCCUPATION       0    4

  ZNUC SCFIT  TOTAL HF ENERGY   KINETIC ENERGY   VIRIAL THEOREM ACCURACY
   8.0   1   -7.380415023E+01  7.344495887E+01 -2.004890620E+00  0.0E+00

 AAAAAAAAAAAAAAAAAAAAAAAAAAAAAAAAAAAAAAAAAAAAAAAAAAAAAAAAAAAAAAAAAAAAAAAAAAAAAAA

 CHARGE NORMALIZATION FACTOR   1.00000000
 TOTAL ATOMIC CHARGES:
   6.0000000   8.0000000
 TTTTTTTTTTTTTTTTTTTTTTTTTTTTTT MOQGAD      TELAPSE        0.05 TCPU        0.02
 TTTTTTTTTTTTTTTTTTTTTTTTTTTTTT SHELLXN     TELAPSE        0.06 TCPU        0.03
 TTTTTTTTTTTTTTTTTTTTTTTTTTTTTT MONMO3      TELAPSE        0.06 TCPU        0.03
 NUMERICALLY INTEGRATED DENSITY     13.9999924975
 TTTTTTTTTTTTTTTTTTTTTTTTTTTTTT NUMDFT      TELAPSE        0.08 TCPU        0.05
 CYC   0 ETOT(AU) -1.121007604314E+02 DETOT -1.12E+02 tst  0.00E+00 PX  1.00E+00
 TTTTTTTTTTTTTTTTTTTTTTTTTTTTTT DIIS        TELAPSE        0.08 TCPU        0.05
 TTTTTTTTTTTTTTTTTTTTTTTTTTTTTT FDIK        TELAPSE        0.08 TCPU        0.05
 INSULATING STATE
 TOP OF VALENCE BANDS -    BAND      7; K    1; EIG -2.2800108E-01 AU
 BOTTOM OF VIRTUAL BANDS - BAND      8; K    1; EIG  1.6394238E-01 AU
 DIRECT ENERGY BAND GAP:  10.6653 eV
 TTTTTTTTTTTTTTTTTTTTTTTTTTTTTT PDIG        TELAPSE        0.08 TCPU        0.05
 CHARGE NORMALIZATION FACTOR   1.00000000
 TOTAL ATOMIC CHARGES:
   5.8746563   8.1253437
 TTTTTTTTTTTTTTTTTTTTTTTTTTTTTT MOQGAD      TELAPSE        0.08 TCPU        0.05
 TTTTTTTTTTTTTTTTTTTTTTTTTTTTTT SHELLXN     TELAPSE        0.09 TCPU        0.06
 TTTTTTTTTTTTTTTTTTTTTTTTTTTTTT MONMO3      TELAPSE        0.09 TCPU        0.06
 NUMERICALLY INTEGRATED DENSITY     13.9999934311
 TTTTTTTTTTTTTTTTTTTTTTTTTTTTTT NUMDFT      TELAPSE        0.11 TCPU        0.08
 CYC   1 ETOT(AU) -1.116375603813E+02 DETOT  4.63E-01 tst  0.00E+00 PX  1.00E+00
 TTTTTTTTTTTTTTTTTTTTTTTTTTTTTT DIIS        TELAPSE        0.11 TCPU        0.09
 DIIS TEST: 0.11994E-02 AT SCF   CYCLE   1 - MIX   30 %
 TTTTTTTTTTTTTTTTTTTTTTTTTTTTTT FDIK        TELAPSE        0.11 TCPU        0.09
 INSULATING STATE
 TOP OF VALENCE BANDS -    BAND      7; K    1; EIG -2.5109142E-01 AU
 BOTTOM OF VIRTUAL BANDS - BAND      8; K    1; EIG  1.4228096E-01 AU
 DIRECT ENERGY BAND GAP:  10.7042 eV
 TTTTTTTTTTTTTTTTTTTTTTTTTTTTTT PDIG        TELAPSE        0.11 TCPU        0.09
 CHARGE NORMALIZATION FACTOR   1.00000000
 TOTAL ATOMIC CHARGES:
   5.8008565   8.1991435
 TTTTTTTTTTTTTTTTTTTTTTTTTTTTTT MOQGAD      TELAPSE        0.11 TCPU        0.09
 TTTTTTTTTTTTTTTTTTTTTTTTTTTTTT SHELLXN     TELAPSE        0.12 TCPU        0.09
 TTTTTTTTTTTTTTTTTTTTTTTTTTTTTT MONMO3      TELAPSE        0.12 TCPU        0.09
 NUMERICALLY INTEGRATED DENSITY     13.9999935873
 TTTTTTTTTTTTTTTTTTTTTTTTTTTTTT NUMDFT      TELAPSE        0.14 TCPU        0.12
 CYC   2 ETOT(AU) -1.116394123753E+02 DETOT -1.85E-03 tst  3.71E-04 PX  8.13E-02
 TTTTTTTTTTTTTTTTTTTTTTTTTTTTTT DIIS        TELAPSE        0.14 TCPU        0.12
 DIIS TEST: 0.66358E-03 AT SCF   CYCLE   2 - DIIS ACTIVE - HISTORY:     2 CYCLES
 TTTTTTTTTTTTTTTTTTTTTTTTTTTTTT FDIK        TELAPSE        0.15 TCPU        0.12
 INSULATING STATE
 TOP OF VALENCE BANDS -    BAND      7; K    1; EIG -2.6665259E-01 AU
 BOTTOM OF VIRTUAL BANDS - BAND      8; K    1; EIG  1.3361498E-01 AU
 DIRECT ENERGY BAND GAP:  10.8918 eV
 TTTTTTTTTTTTTTTTTTTTTTTTTTTTTT PDIG        TELAPSE        0.15 TCPU        0.12
 CHARGE NORMALIZATION FACTOR   1.00000000
 TOTAL ATOMIC CHARGES:
   5.8467132   8.1532868
 TTTTTTTTTTTTTTTTTTTTTTTTTTTTTT MOQGAD      TELAPSE        0.15 TCPU        0.12
 TTTTTTTTTTTTTTTTTTTTTTTTTTTTTT SHELLXN     TELAPSE        0.15 TCPU        0.12
 TTTTTTTTTTTTTTTTTTTTTTTTTTTTTT MONMO3      TELAPSE        0.15 TCPU        0.12
 NUMERICALLY INTEGRATED DENSITY     13.9999934482
 TTTTTTTTTTTTTTTTTTTTTTTTTTTTTT NUMDFT      TELAPSE        0.18 TCPU        0.15
 CYC   3 ETOT(AU) -1.116399500474E+02 DETOT -5.38E-04 tst  7.87E-05 PX  2.70E-02
 TTTTTTTTTTTTTTTTTTTTTTTTTTTTTT DIIS        TELAPSE        0.18 TCPU        0.15
 DIIS TEST: 0.72826E-04 AT SCF   CYCLE   3 - DIIS ACTIVE - HISTORY:     3 CYCLES
 TTTTTTTTTTTTTTTTTTTTTTTTTTTTTT FDIK        TELAPSE        0.18 TCPU        0.15
 INSULATING STATE
 TOP OF VALENCE BANDS -    BAND      7; K    1; EIG -2.6638181E-01 AU
 BOTTOM OF VIRTUAL BANDS - BAND      8; K    1; EIG  1.3423692E-01 AU
 DIRECT ENERGY BAND GAP:  10.9014 eV
 TTTTTTTTTTTTTTTTTTTTTTTTTTTTTT PDIG        TELAPSE        0.18 TCPU        0.15
 CHARGE NORMALIZATION FACTOR   1.00000000
 TOTAL ATOMIC CHARGES:
   5.8338452   8.1661548
 TTTTTTTTTTTTTTTTTTTTTTTTTTTTTT MOQGAD      TELAPSE        0.18 TCPU        0.15
 TTTTTTTTTTTTTTTTTTTTTTTTTTTTTT SHELLXN     TELAPSE        0.18 TCPU        0.15
 TTTTTTTTTTTTTTTTTTTTTTTTTTTTTT MONMO3      TELAPSE        0.18 TCPU        0.15
 NUMERICALLY INTEGRATED DENSITY     13.9999934799
 TTTTTTTTTTTTTTTTTTTTTTTTTTTTTT NUMDFT      TELAPSE        0.21 TCPU        0.18
 CYC   4 ETOT(AU) -1.116400004124E+02 DETOT -5.04E-05 tst  3.43E-06 PX  5.11E-03
 TTTTTTTTTTTTTTTTTTTTTTTTTTTTTT DIIS        TELAPSE        0.21 TCPU        0.18
 DIIS TEST: 0.18954E-08 AT SCF   CYCLE   4 - DIIS ACTIVE - HISTORY:     4 CYCLES
 TTTTTTTTTTTTTTTTTTTTTTTTTTTTTT FDIK        TELAPSE        0.21 TCPU        0.18
 INSULATING STATE
 TOP OF VALENCE BANDS -    BAND      7; K    1; EIG -2.6635495E-01 AU
 BOTTOM OF VIRTUAL BANDS - BAND      8; K    1; EIG  1.3425512E-01 AU
 DIRECT ENERGY BAND GAP:  10.9012 eV
 TTTTTTTTTTTTTTTTTTTTTTTTTTTTTT PDIG        TELAPSE        0.21 TCPU        0.18
 CHARGE NORMALIZATION FACTOR   1.00000000
 TOTAL ATOMIC CHARGES:
   5.8337912   8.1662088
 TTTTTTTTTTTTTTTTTTTTTTTTTTTTTT MOQGAD      TELAPSE        0.21 TCPU        0.18
 TTTTTTTTTTTTTTTTTTTTTTTTTTTTTT SHELLXN     TELAPSE        0.21 TCPU        0.18
 TTTTTTTTTTTTTTTTTTTTTTTTTTTTTT MONMO3      TELAPSE        0.21 TCPU        0.18
 NUMERICALLY INTEGRATED DENSITY     13.9999934798
 TTTTTTTTTTTTTTTTTTTTTTTTTTTTTT NUMDFT      TELAPSE        0.24 TCPU        0.21
 CYC   5 ETOT(AU) -1.116400004167E+02 DETOT -4.31E-09 tst  8.48E-10 PX  7.09E-05
 TTTTTTTTTTTTTTTTTTTTTTTTTTTTTT DIIS        TELAPSE        0.24 TCPU        0.21
 DIIS TEST: 0.34042E-10 AT SCF   CYCLE   5 - DIIS ACTIVE - HISTORY:     5 CYCLES
 TTTTTTTTTTTTTTTTTTTTTTTTTTTTTT FDIK        TELAPSE        0.24 TCPU        0.21
 INSULATING STATE
 TOP OF VALENCE BANDS -    BAND      7; K    1; EIG -2.6635666E-01 AU
 BOTTOM OF VIRTUAL BANDS - BAND      8; K    1; EIG  1.3425371E-01 AU
 DIRECT ENERGY BAND GAP:  10.9012 eV
 TTTTTTTTTTTTTTTTTTTTTTTTTTTTTT PDIG        TELAPSE        0.24 TCPU        0.21
 CHARGE NORMALIZATION FACTOR   1.00000000
 TOTAL ATOMIC CHARGES:
   5.8337989   8.1662011
 TTTTTTTTTTTTTTTTTTTTTTTTTTTTTT MOQGAD      TELAPSE        0.24 TCPU        0.21
 TTTTTTTTTTTTTTTTTTTTTTTTTTTTTT SHELLXN     TELAPSE        0.24 TCPU        0.21

 ::: DIPOLE MOMENT ALONG NON PERIODIC DIRECTIONS:
 ::: A.U.     (X) -1.94245E-01   (Y) -1.21403E-01   (Z) -9.71226E-02
 ::: DEBYE         4.93722E-01        3.08576E-01        2.46861E-01

 +++ ENERGIES IN A.U. +++
 ::: EXT EL-POLE                                   0.0000000000000E+00
 ::: EXT EL-SPHEROPOLE                             0.0000000000000E+00
 ::: BIELET ZONE E-E                               7.5572665484331E+01
 ::: TOTAL E-E                                     7.5572665484331E+01
 ::: TOTAL E-N + N-E                              -3.1136913641441E+02
 ::: TOTAL N-N                                     2.4788355656768E+01
 ::: KINETIC ENERGY                                1.1065105570413E+02
 ::: PSEUDO TOTAL   ENERGY                        -1.0035705956918E+02
 ::: VIRIAL COEFFICIENT                            1.0487848352260E+00
 TTTTTTTTTTTTTTTTTTTTTTTTTTTTTT MONMO3      TELAPSE        0.24 TCPU        0.21
 NUMERICALLY INTEGRATED DENSITY     13.9999934798
 TTTTTTTTTTTTTTTTTTTTTTTTTTTTTT NUMDFT      TELAPSE        0.27 TCPU        0.24
 CYC   6 ETOT(AU) -1.116400004167E+02 DETOT -2.75E-11 tst  3.00E-12 PX  7.09E-05

 == SCF ENDED - CONVERGENCE ON ENERGY      E(AU) -1.1164000041671E+02 CYCLES   6


 ENERGY EXPRESSION=HARTREE+FOCK EXCH*0.20000+(BECKE      EXCH)*0.80000+LYP        CORR


 TOTAL ENERGY(DFT)(AU)(  6) -1.1164000041671E+02 DE-2.8E-11 tester 3.0E-12
 TTTTTTTTTTTTTTTTTTTTTTTTTTTTTT EDFT        TELAPSE        0.27 TCPU        0.24

 *******************************************************************************
 *                             FORCE CALCULATION                               *
 *******************************************************************************

 TTTTTTTTTTTTTTTTTTTTTTTTTTTTTT NUMDFG      TELAPSE        0.33 TCPU        0.30
 INFORMATION **** EXCPOG **** EXCH. BIPO BUFFER LENGTH (WORDS) =        5760
 INFORMATION **** GENPOG **** BIPO BUFFER LENGTH (WORDS) =        2100
 TTTTTTTTTTTTTTTTTTTTTTTTTTTTTT SHELXG      TELAPSE        0.35 TCPU        0.31

 CARTESIAN FORCES IN HARTREE/BOHR (ANALYTICAL)
   ATOM                     X                   Y                   Z
   1   6            -4.865234638620E-01 -3.040772134487E-01 -2.432619130492E-01
   2   8             4.865234638624E-01  3.040772134488E-01  2.432619130492E-01

 RESULTANT FORCE     4.583000645653E-13  6.039613253961E-14 -1.953992523340E-14

 SYMMETRY ALLOWED FORCES (ANALYTICAL) (DIRECTION, FORCE)

    1 -8.8129948E-01
 TTTTTTTTTTTTTTTTTTTTTTTTTTTTTT TOTGRA      TELAPSE        0.37 TCPU        0.31
 INFORMATION **** opta001 **** GEOMETRY OUTPUT FILE
 CLASSICAL MODEL (SCHLEGEL) USED AS INITIAL HESSIAN MATRIX
 REFERENCE GEOMETRY DEFINED

 MAX GRADIENT      0.881299  THRESHOLD              0.000450 CONVERGED NO
 RMS GRADIENT      0.881299  THRESHOLD              0.000300 CONVERGED NO

 GRADIENT NORM     0.881299  GRADIENT THRESHOLD     0.500000

 EIGENVALUES OF THE ESTIMATED HESSIAN
   3.786    

 INITIAL TRUST RADIUS    0.5000000000E+00

 PREDICTED ENERGY CHANGE    -0.103E+00

 INITIAL DISPLACEMENTS
 -0.232788
 TTTTTTTTTTTTTTTTTTTTTTTTTTTTTT OPTI        TELAPSE        0.41 TCPU        0.32

 OPTOPTOPTOPTOPTOPTOPTOPTOPTOPTOPTOPTOPTOPTOPTOPTOPTOPTOPTOPTOPTOPTOPTOPTOPTOPT

 - INFORMATION ON SCF MOVED TO SCFOUT.LOG
 GEOMETRY OPTIMIZATION INFORMATION STORED IN OPTINFO.DAT

 OPTOPTOPTOPTOPTOPTOPTOPTOPTOPTOPTOPTOPTOPTOPTOPTOPTOPTOPTOPTOPTOPTOPTOPTOPTOPT
 *******************************************************************************
 COORDINATE OPTIMIZATION - POINT    2
 *******************************************************************************
 ATOMS IN THE ASYMMETRIC UNIT    2 - ATOMS IN THE UNIT CELL:    2
     ATOM             X(ANGSTROM)         Y(ANGSTROM)         Z(ANGSTROM)
 *******************************************************************************
      1 T   6 C    -6.800527711195E-02 -4.250329819497E-02 -3.400263855598E-02
      2 T   8 O     8.680052771120E-01  5.425032981950E-01  4.340026385560E-01

 T = ATOM BELONGING TO THE ASYMMETRIC UNIT

 TOTAL ENERGY(DFT)(AU)(  6) -1.1172002538224E+02     DE (AU)   -8.002E-02

 UPDATED TRUST RADIUS     0.100E+01

 SYMMETRY ALLOWED FORCES  (COORDINATE, FORCE)

    1  3.3030755E-02

 GRADIENT NORM     0.033031  GRADIENT THRESHOLD     0.500000

 EIGENVALUES OF THE ESTIMATED HESSIAN
   3.928    

 PREDICTED ENERGY CHANGE    -0.139E-03

 MAX GRADIENT      0.033031  THRESHOLD              0.000450 CONVERGED NO
 RMS GRADIENT      0.033031  THRESHOLD              0.000300 CONVERGED NO
 MAX DISPLAC.      0.008410  THRESHOLD              0.001800 CONVERGED NO
 RMS DISPLAC.      0.008410  THRESHOLD              0.001200 CONVERGED NO
 TTTTTTTTTTTTTTTTTTTTTTTTTTTTTT OPTI        TELAPSE        0.76 TCPU        0.66
 *******************************************************************************
 COORDINATE OPTIMIZATION - POINT    3
 *******************************************************************************
 ATOMS IN THE ASYMMETRIC UNIT    2 - ATOMS IN THE UNIT CELL:    2
     ATOM             X(ANGSTROM)         Y(ANGSTROM)         Z(ANGSTROM)
 *******************************************************************************
      1 T   6 C    -6.554854373382E-02 -4.096783983364E-02 -3.277427186691E-02
      2 T   8 O     8.655485437338E-01  5.409678398336E-01  4.327742718669E-01

 T = ATOM BELONGING TO THE ASYMMETRIC UNIT

 ENERGY DIFFERENCE WITH RESPECT TO FIRST CALCULATION USING
 THE PRESENT REFERENCE GEOMETRY:  8.002496552666E-02

 REFERENCE GEOMETRY WILL BE CHANGED

 TOTAL ENERGY(DFT)(AU)(  5) -1.1172022639412E+02     DE (AU)   -2.010E-04

 SYMMETRY ALLOWED FORCES  (COORDINATE, FORCE)

    1  1.4444186E-02

 GRADIENT NORM     0.014444  GRADIENT THRESHOLD     0.500000

 HESSIAN UPDATE SKIPPED

 EIGENVALUES OF THE ESTIMATED HESSIAN
   3.928    

 PREDICTED ENERGY CHANGE    -0.266E-04

 MAX GRADIENT      0.014444  THRESHOLD              0.000450 CONVERGED NO
 RMS GRADIENT      0.014444  THRESHOLD              0.000300 CONVERGED NO
 MAX DISPLAC.      0.003677  THRESHOLD              0.001800 CONVERGED NO
 RMS DISPLAC.      0.003677  THRESHOLD              0.001200 CONVERGED NO
 TTTTTTTTTTTTTTTTTTTTTTTTTTTTTT OPTI        TELAPSE        1.07 TCPU        0.98
 *******************************************************************************
 COORDINATE OPTIMIZATION - POINT    4
 *******************************************************************************
 ATOMS IN THE ASYMMETRIC UNIT    2 - ATOMS IN THE UNIT CELL:    2
     ATOM             X(ANGSTROM)         Y(ANGSTROM)         Z(ANGSTROM)
 *******************************************************************************
      1 T   6 C    -6.447422634014E-02 -4.029639146259E-02 -3.223711317007E-02
      2 T   8 O     8.644742263401E-01  5.402963914626E-01  4.322371131701E-01

 T = ATOM BELONGING TO THE ASYMMETRIC UNIT

 TOTAL ENERGY(DFT)(AU)(  3) -1.1172026418952E+02     DE (AU)   -3.780E-05

 UPDATED TRUST RADIUS     0.200E+01

 SYMMETRY ALLOWED FORCES  (COORDINATE, FORCE)

    1  5.7477752E-03

 GRADIENT NORM     0.005748  GRADIENT THRESHOLD     0.500000

 EIGENVALUES OF THE ESTIMATED HESSIAN
   2.365    

 PREDICTED ENERGY CHANGE    -0.699E-05

 MAX GRADIENT      0.005748  THRESHOLD              0.000450 CONVERGED NO
 RMS GRADIENT      0.005748  THRESHOLD              0.000300 CONVERGED NO
 MAX DISPLAC.      0.002431  THRESHOLD              0.001800 CONVERGED NO
 RMS DISPLAC.      0.002431  THRESHOLD              0.001200 CONVERGED NO
 TTTTTTTTTTTTTTTTTTTTTTTTTTTTTT OPTI        TELAPSE        1.33 TCPU        1.23
 *******************************************************************************
 COORDINATE OPTIMIZATION - POINT    5
 *******************************************************************************
 ATOMS IN THE ASYMMETRIC UNIT    2 - ATOMS IN THE UNIT CELL:    2
     ATOM             X(ANGSTROM)         Y(ANGSTROM)         Z(ANGSTROM)
 *******************************************************************************
      1 T   6 C    -6.376417079217E-02 -3.985260674510E-02 -3.188208539608E-02
      2 T   8 O     8.637641707922E-01  5.398526067451E-01  4.318820853961E-01

 T = ATOM BELONGING TO THE ASYMMETRIC UNIT

 TOTAL ENERGY(DFT)(AU)(  3) -1.1172027217702E+02     DE (AU)   -7.988E-06

 UPDATED TRUST RADIUS     0.400E+01

 SYMMETRY ALLOWED FORCES  (COORDINATE, FORCE)

    1  2.9171257E-04

 GRADIENT NORM     0.000292  GRADIENT THRESHOLD     0.500000

 EIGENVALUES OF THE ESTIMATED HESSIAN
   2.245    

 PREDICTED ENERGY CHANGE    -0.190E-07

 MAX GRADIENT      0.000292  THRESHOLD              0.000450 CONVERGED YES
 RMS GRADIENT      0.000292  THRESHOLD              0.000300 CONVERGED YES
 MAX DISPLAC.      0.000130  THRESHOLD              0.001800 CONVERGED YES
 RMS DISPLAC.      0.000130  THRESHOLD              0.001200 CONVERGED YES

 CONVERGENCE TESTS SATISFIED AFTER   5 ENERGY AND GRADIENT CALCULATIONS
 +++++++++++++++++++++++++++++++++++++++++++++++++++++++++++++++++++++++++++++++
 FINALRUN OPTION: RE-STARTING OPTIMIZATION
 +++++++++++++++++++++++++++++++++++++++++++++++++++++++++++++++++++++++++++++++
 TTTTTTTTTTTTTTTTTTTTTTTTTTTTTT OPTI        TELAPSE        1.62 TCPU        1.53
 *******************************************************************************
 COORDINATE OPTIMIZATION - POINT    6
 *******************************************************************************
 ATOMS IN THE ASYMMETRIC UNIT    2 - ATOMS IN THE UNIT CELL:    2
     ATOM             X(ANGSTROM)         Y(ANGSTROM)         Z(ANGSTROM)
 *******************************************************************************
      1 T   6 C    -6.372620712817E-02 -3.982887945511E-02 -3.186310356409E-02
      2 T   8 O     8.637262071282E-01  5.398288794551E-01  4.318631035641E-01

 T = ATOM BELONGING TO THE ASYMMETRIC UNIT

 REFERENCE GEOMETRY WILL BE CHANGED

 TOTAL ENERGY(DFT)(AU)(  3) -1.1172027223111E+02     DE (AU)   -5.409E-08

 SYMMETRY ALLOWED FORCES  (COORDINATE, FORCE)

    1  2.6627224E-04

 GRADIENT NORM     0.000266  GRADIENT THRESHOLD     0.500000

 HESSIAN UPDATE SKIPPED

 EIGENVALUES OF THE ESTIMATED HESSIAN
   2.245    

 PREDICTED ENERGY CHANGE    -0.158E-07

 MAX GRADIENT      0.000266  THRESHOLD              0.000450 CONVERGED YES
 RMS GRADIENT      0.000266  THRESHOLD              0.000300 CONVERGED YES
 MAX DISPLAC.      0.000119  THRESHOLD              0.001800 CONVERGED YES
 RMS DISPLAC.      0.000119  THRESHOLD              0.001200 CONVERGED YES

 CONVERGENCE TESTS SATISFIED AFTER   6 ENERGY AND GRADIENT CALCULATIONS

 ******************************************************************
 * OPT END - CONVERGED * E(AU):  -1.117202722311E+02  POINTS    6 *
 ******************************************************************

   BAND GAP:                      9.2095  eV 

 EIGENVECTORS IN FORTRAN UNIT  8

 NEIGHBORS OF THE NON-EQUIVALENT ATOMS

 N = NUMBER OF NEIGHBORS AT DISTANCE R
    ATOM  N     R/ANG      R/AU   NEIGHBORS (ATOM LABELS AND CELL INDICES)
   1 C    1     1.1879     2.2449    2 O    0 0 0

   2 O    1     1.1879     2.2449    1 C    0 0 0


 FINAL OPTIMIZED GEOMETRY - DIMENSIONALITY OF THE SYSTEM      0
 (NON PERIODIC DIRECTION: LATTICE PARAMETER FORMALLY SET TO 500)
 *******************************************************************************
 ATOMS IN THE ASYMMETRIC UNIT    2 - ATOMS IN THE UNIT CELL:    2
     ATOM             X(ANGSTROM)         Y(ANGSTROM)         Z(ANGSTROM)
 *******************************************************************************
      1 T   6 C    -6.372620712817E-02 -3.982887945511E-02 -3.186310356409E-02
      2 T   8 O     8.637262071282E-01  5.398288794551E-01  4.318631035641E-01

 T = ATOM BELONGING TO THE ASYMMETRIC UNIT
 INFORMATION **** fort.34 **** GEOMETRY OUTPUT FILE

 ****    1 SYMMOPS - TRANSLATORS IN FRACTIONAL UNITS
 **** MATRICES AND TRANSLATORS IN THE CRYSTALLOGRAPHIC REFERENCE FRAME
   V INV                    ROTATION MATRICES                   TRANSLATORS
   1   1  1.00  0.00  0.00  0.00  1.00  0.00  0.00  0.00  1.00  0.00  0.00  0.00
 TTTTTTTTTTTTTTTTTTTTTTTTTTTTTT END         TELAPSE        1.88 TCPU        1.78
 EEEEEEEEEE TERMINATION  DATE 03 06 2022 TIME 18:42:40.4
Fri  3 Jun 2022 18:42:40 BST
Contents of temporary directory:
total 4440
-rw-r--r--  1 brunocamino  admin     1998  3 Jun 18:42 FORCES.DAT
-rw-r--r--  1 brunocamino  admin       22  3 Jun 18:42 HESSOPT.DAT
-rw-r--r--  1 brunocamino  admin  1577328  3 Jun 18:42 OPTINFO.DAT
-rw-r--r--  1 brunocamino  admin    43661  3 Jun 18:42 SCFOUT.LOG
-rw-r--r--  1 brunocamino  admin     1488  3 Jun 18:42 diis_Fg
-rw-r--r--  1 brunocamino  admin     1616  3 Jun 18:42 diis_Fia1
-rw-r--r--  1 brunocamino  admin      808  3 Jun 18:42 diis_Fia2
-rw-r--r--  1 brunocamino  admin        0  3 Jun 18:42 diis_Sk
-rw-r--r--  1 brunocamino  admin      808  3 Jun 18:42 fort.10
-rw-r--r--  1 brunocamino  admin      496  3 Jun 18:42 fort.11
-rw-r--r--  1 brunocamino  admin     6648  3 Jun 18:42 fort.12
-rw-r--r--  1 brunocamino  admin     8996  3 Jun 18:42 fort.20
-rw-r--r--  1 brunocamino  admin     1459  3 Jun 18:42 fort.33
-rw-r--r--  1 brunocamino  admin      634  3 Jun 18:42 fort.34
-rw-r--r--  1 brunocamino  admin      808  3 Jun 18:42 fort.8
-rw-r--r--  1 brunocamino  admin     8996  3 Jun 18:42 fort.9
-rw-r--r--  1 brunocamino  admin     2112  3 Jun 18:42 fort.95
-rw-r--r--  1 brunocamino  admin    21239  3 Jun 18:42 fort.98
-rw-r--r--  1 brunocamino  admin      634  3 Jun 18:42 opta001
-rw-r--r--  1 brunocamino  admin      634  3 Jun 18:42 opta002
-rw-r--r--  1 brunocamino  admin      634  3 Jun 18:42 opta003
-rw-r--r--  1 brunocamino  admin      634  3 Jun 18:42 opta004
-rw-r--r--  1 brunocamino  admin      634  3 Jun 18:42 opta005
-rw-r--r--  1 brunocamino  admin      634  3 Jun 18:42 opta006
wave function binary file /Users/brunocamino/Desktop/Imperial/crystal-code-tools/CRYSTALpy/examples/data/co.f9
file fort.98 saved as /Users/brunocamino/Desktop/Imperial/crystal-code-tools/CRYSTALpy/examples/data/co.f98
file optaxxx saved as /Users/brunocamino/Desktop/Imperial/crystal-code-tools/CRYSTALpy/examples/data/co.optstory/opta001 /Users/brunocamino/Desktop/Imperial/crystal-code-tools/CRYSTALpy/examples/data/co.optstory/opta002 /Users/brunocamino/Desktop/Imperial/crystal-code-tools/CRYSTALpy/examples/data/co.optstory/opta003 /Users/brunocamino/Desktop/Imperial/crystal-code-tools/CRYSTALpy/examples/data/co.optstory/opta004 /Users/brunocamino/Desktop/Imperial/crystal-code-tools/CRYSTALpy/examples/data/co.optstory/opta005 /Users/brunocamino/Desktop/Imperial/crystal-code-tools/CRYSTALpy/examples/data/co.optstory/opta006
file HESSOPT.DAT saved as /Users/brunocamino/Desktop/Imperial/crystal-code-tools/CRYSTALpy/examples/data/co.hessopt
file OPTINFO.DAT saved as /Users/brunocamino/Desktop/Imperial/crystal-code-tools/CRYSTALpy/examples/data/co.optinfo
file SCFOUT.LOG saved as /Users/brunocamino/Desktop/Imperial/crystal-code-tools/CRYSTALpy/examples/data/co.SCFLOG
file fort.20 saved as /Users/brunocamino/Desktop/Imperial/crystal-code-tools/CRYSTALpy/examples/data/co.f20
file fort.33 saved as /Users/brunocamino/Desktop/Imperial/crystal-code-tools/CRYSTALpy/examples/data/co.xyz
geometry input file fort.34 saved as /Users/brunocamino/Desktop/Imperial/crystal-code-tools/CRYSTALpy/examples/data/co.gui
temporary directory /Users/brunocamino/crystal/tmp removed
