CORUNDUM
CRYSTAL
0 0 0
167
4.82860168 13.11488905
2
13  3.333333333333E-01 -3.333333333333E-01  1.955179055198E-02
 8 -3.617448850731E-01 -3.333333333333E-01 -8.333333333333E-02
SCELPHONO
1 -1  0
0  1 -1
1  1  1
QHA
TEMPERAT
100 10 1200
END
END
13 5
0 0 8 2. 1.
 70510.0 0.000226
 10080.0 0.0019
 2131.0 0.0110
 547.5 0.0509
 163.1 0.1697 
 54.48 0.3688
 19.05 0.3546 
 5.402 0.0443 
0 1 5 8. 1.
 139.6 -0.01120 0.0089
 32.53 -0.1136 0.0606
 10.23 -0.0711 0.1974
 3.810 0.5269 0.3186
 1.517 0.7675 0.2995
0 1 1 3. 1.
 0.59 1. 1.
0 1 1 0. 1.
 0.35 1. 1.
0 3 1 0. 1.
 0.51 1.
8 5
0 0 8 2.0 1.0
 8020.0 0.00108
 1338.0 0.00804
 255.4 0.05324
 69.22 0.1681
 23.90 0.3581
 9.264 0.3855
 3.851 0.1468
 1.212 0.0728
0 1 4 6.0 1.0
 49.43 -0.00883 0.00958
 10.47 -0.0915 0.0696
 3.235 -0.0402 0.2065
 1.217 0.379 0.347
0 1 1 0.0 1.0
 0.500 1.0 1.0
0 1 1 0.0 1.0
 0.191 1.0 1.0
0 3 1 0.0 1.0
 0.500 1.0
99 0
END
DFT
PBEXC
END
SHRINK
2 2
TOLDEE
9
MAXCYCLE
200
END
Wed Jun  1 09:44:27 CEST 2016
 PROCESS            3  OF           32  WORKING
 PROCESS            1  OF           32  WORKING
 PROCESS           16  OF           32  WORKING
 PROCESS            0  OF           32  WORKING
 PROCESS            6  OF           32  WORKING
 PROCESS            2  OF           32  WORKING
 PROCESS            7  OF           32  WORKING
 PROCESS            8  OF           32  WORKING
 PROCESS           10  OF           32  WORKING
 PROCESS           14  OF           32  WORKING
 PROCESS            4  OF           32  WORKING
 PROCESS           15  OF           32  WORKING

         
 *******************************************************************************
 *                                                                             *
 *                               CRYSTAL14                                     *
 *                         develop :  - June, 2016                             *
 *                       HTTP://WWW.CRYSTAL.UNITO.IT                           *
 *                                                                             *
 *                              MAIN AUTHORS                                   *
 *                                                                             *
 *  R. DOVESI(1,11), V.R. SAUNDERS(2), C. ROETTI(1,11), R. ORLANDO(1,11),      *
 *  C.M. ZICOVICH-WILSON(1,3), F. PASCALE(4), B. CIVALLERI(1,11),              *
 *  K. DOLL(5), N.M. HARRISON(2,6), I. J. BUSH(7), Ph. D'ARCO(8),              *
 *  M. LLUNELL(9), M. CAUSA'(10), Y. NOEL(8)                                   *
 *                                                                             *
 *        CONTRIBUTIONS TO THE CURRENT RELEASE HAVE BEEN GIVEN BY              *
 *                                                                             *
 *  L. MASCHIO(1,11), S. CASASSA(1,11), A. ERBA(1,11), M. FERRABONE(1,11),     *
 *  M. DE LA PIERRE(1,11), M. FERRERO(1,11), V. LACIVITA(1,11),                *
 *  J. BAIMA(1,11), E. ALBANESE(1,11), M.F. PEINTINGER(12), R. BAST(13),       *
 *  M. RERAT(14), B. KIRTMAN(15), R. DEMICHELIS(1,16)                          *
 *                                                                             *
 * (1) THEORETICAL CHEMISTRY GROUP - UNIVERSITA' DI TORINO - TORINO (ITALY)    *
 *     http://www.crystal.unito.it                                             *
 * (2) COMPUTATIONAL SCIENCE & ENGINEERING DEPARTMENT - STFC DARESBURY (UK)    *
 *     http://www.stfc.ac.uk/CSE/randd/cmg/CRYSTAL/25806.aspx                  *
 * (3) UNIVERSIDAD AUTONOMA DEL ESTADO DE MORELOS - CUERNAVACA (MEXICO)        *
 * (4) UNIVERSITE' DE LORRAINE - NANCY (FRANCE)                                *
 * (5) UNIVERSITAET ULM - ULM (GERMANY); (6) IMPERIAL COLLEGE - LONDON (UK)    *
 * (7) NAG - OXFORD (UK); (8) UPMC - SORBONNE UNIVERSITES - PARIS (FRANCE)     *
 * (9) UNIVERSIDAD DE BARCELONA - BARCELONA (SPAIN)                            *
 *(10) UNIVERSITA' DI NAPOLI "FEDERICO II" - NAPOLI (ITALY)                    *
 *(11) NIS - NANOSTRUCTURED INTERFACES AND SURFACES - TORINO (ITALY)           *
 *(12) MPI FUER CHEMISCHE ENERGIEKONVERSION - MUELHEIM AN DER RUHR (GERMANY)   *
 *(13) UNIVERSITY OF STOCKHOLM - STOCKHOLM (SWEDEN)                            *
 *(14) UNIVERSITE' DE PAU ET DES PAYS DE L'ADOUR - PAU (FRANCE)                *
 *(15) UNIVERSITY OF CALIFORNIA SANTA BARBARA - SANTA BARBARA (USA)            *
 *(16) CURTIN UNIVERSITY - PERTH (AUSTRALIA)                                   *
 *                                                                             *
 ********************************************************************************
 EEEEEEEEEE STARTING  DATE 01 06 2016 TIME 09:44:28.6
 CORUNDUM                                                                        
 PROCESS           12  OF           32  WORKING
 PROCESS           18  OF           32  WORKING
 PROCESS           13  OF           32  WORKING
 PROCESS           23  OF           32  WORKING

 CRYSTAL CALCULATION
 (INPUT ACCORDING TO THE INTERNATIONAL TABLES FOR X-RAY CRYSTALLOGRAPHY)
 CRYSTAL FAMILY                       :  HEXAGONAL   
 CRYSTAL CLASS  (GROTH - 1921)        :  DITRIGONAL SCALENOHEDRAL             

 SPACE GROUP (CENTROSYMMETRIC)        :  R -3 C          
 PROCESS            5  OF           32  WORKING

 LATTICE PARAMETERS  (ANGSTROMS AND DEGREES) - CONVENTIONAL CELL
        A           B           C        ALPHA        BETA       GAMMA
     4.82860     4.82860    13.11489    90.00000    90.00000   120.00000
 PROCESS           22  OF           32  WORKING


 NUMBER OF IRREDUCIBLE ATOMS IN THE CONVENTIONAL CELL:    2

 INPUT COORDINATES

 ATOM AT. N.              COORDINATES
   1  13     3.333333333333E-01 -3.333333333333E-01  1.955179055198E-02
   2   8    -3.617448850731E-01 -3.333333333333E-01 -8.333333333333E-02

 *******************************************************************************

 << INFORMATION >>: FROM NOW ON, ALL COORDINATES REFER TO THE PRIMITIVE CELL

 *******************************************************************************

 LATTICE PARAMETERS  (ANGSTROMS AND DEGREES) - PRIMITIVE CELL
       A          B          C        ALPHA      BETA     GAMMA        VOLUME
    5.18488    5.18488    5.18488    55.50367  55.50367  55.50367     88.270739
 PROCESS           20  OF           32  WORKING

 COORDINATES OF THE EQUIVALENT ATOMS (FRACTIONAL UNITS)

 N. ATOM EQUIV AT. N.          X                  Y                  Z

   1   1   1   13 AL    3.52885123885E-01  3.52885123885E-01  3.52885123885E-01
   2   1   2   13 AL    1.47114876115E-01  1.47114876115E-01  1.47114876115E-01
   3   1   3   13 AL   -3.52885123885E-01 -3.52885123885E-01 -3.52885123885E-01
   4   1   4   13 AL   -1.47114876115E-01 -1.47114876115E-01 -1.47114876115E-01

   5   2   1    8 O    -4.45078218406E-01 -5.49217815935E-02  2.50000000000E-01
   6   2   2    8 O     2.50000000000E-01 -4.45078218406E-01 -5.49217815935E-02
   7   2   3    8 O    -5.49217815935E-02  2.50000000000E-01 -4.45078218406E-01
   8   2   4    8 O     4.45078218406E-01  5.49217815935E-02 -2.50000000000E-01
   9   2   5    8 O    -2.50000000000E-01  4.45078218406E-01  5.49217815935E-02
 PROCESS           24  OF           32  WORKING
  10   2   6    8 O     5.49217815935E-02 -2.50000000000E-01  4.45078218406E-01

 NUMBER OF SYMMETRY OPERATORS         :   12
 PROCESS           27  OF           32  WORKING
 *******************************************************************************
 * GEOMETRY EDITING - INPUT COORDINATES ARE GIVEN IN ANGSTROM         
 *******************************************************************************
 PROCESS            9  OF           32  WORKING

 GEOMETRY NOW FULLY CONSISTENT WITH THE GROUP
 PROCESS           11  OF           32  WORKING
 PROCESS           17  OF           32  WORKING
 PROCESS           28  OF           32  WORKING
 PROCESS           29  OF           32  WORKING
 PROCESS           25  OF           32  WORKING
 PROCESS           31  OF           32  WORKING
 PROCESS           19  OF           32  WORKING
 PROCESS           26  OF           32  WORKING
 PROCESS           30  OF           32  WORKING
 PROCESS           21  OF           32  WORKING

 REMOVAL OF SYMMOPS WITH FINITE TRANSLATIONAL COMPONENTS
 HAS REDUCED THEIR NUMBER FROM 12 TO  6

 GCALCO - MAX INDICES DIRECT LATTICE VECTOR    14    14    14
 NO.OF VECTORS CREATED 6999 STARS  522 RMAX    53.00424 BOHR

 *******************************************************************************
 * SUPERCELL OPTION
 *******************************************************************************


        EXPANSION MATRIX OF PRIMITIVE CELL
 E1     1.000    -1.000     0.000
 E2     0.000     1.000    -1.000
 E3     1.000     1.000     1.000

 NUMBER OF ATOMS PER SUPERCELL    30

        DIRECT LATTICE VECTORS COMPONENTS (ANGSTROM)
 B1     4.182    -2.414     0.000
 B2     0.000     4.829     0.000
 B3     0.000     0.000    13.115

 LATTICE PARAMETERS  (ANGSTROM AND DEGREES)
       A          B          C         ALPHA     BETA     GAMMA        VOLUME
    4.82860    4.82860   13.11489    90.00000  90.00000 120.00000    264.812216


 **** ATOMS BELONGING TO THE SUPERCELL
 LABEL AT.NO.      COORDINATES (ANGSTROM AND FRACTIONAL)
     1    13     0.0000     0.0000     4.6280     0.0000     0.0000     0.3529
     2    13    -1.3939     2.4143    -4.1152    -0.3333     0.3333    -0.3138
     3    13     1.3939    -2.4143     0.2564     0.3333    -0.3333     0.0196
     4    13    -1.3939     2.4143     6.3010    -0.3333     0.3333     0.4804
     5    13     1.3939    -2.4143    -2.4422     0.3333    -0.3333    -0.1862
     6    13     0.0000     0.0000     1.9294     0.0000     0.0000     0.1471
     7    13     1.3939    -2.4143     4.1152     0.3333    -0.3333     0.3138
     8    13     0.0000     0.0000    -4.6280     0.0000     0.0000    -0.3529
     9    13    -1.3939     2.4143    -0.2564    -0.3333     0.3333    -0.0196
    10    13    -1.3939     2.4143     2.4422    -0.3333     0.3333     0.1862
    11    13     1.3939    -2.4143    -6.3010     0.3333    -0.3333    -0.4804
    12    13     0.0000     0.0000    -1.9294     0.0000     0.0000    -0.1471
    13     8     1.2751    -0.7362     3.2787     0.3049     0.0000     0.2500
    14     8    -0.1188     1.6781    -5.4645    -0.0284     0.3333    -0.4167
    15     8    -1.5127    -0.7362    -1.0929    -0.3617    -0.3333    -0.0833
    16     8     0.0000     1.4723     3.2787     0.0000     0.3049     0.2500
    17     8    -1.3939    -0.9420    -5.4645    -0.3333    -0.3617    -0.4167
    18     8     1.3939    -0.9420    -1.0929     0.3333    -0.0284    -0.0833
    19     8    -1.2751    -0.7362     3.2787    -0.3049    -0.3049     0.2500
    20     8     1.5127    -0.7362    -5.4645     0.3617     0.0284    -0.4167
    21     8     0.1188     1.6781    -1.0929     0.0284     0.3617    -0.0833
    22     8     0.1188    -1.6781     5.4645     0.0284    -0.3333     0.4167
    23     8    -1.2751     0.7362    -3.2787    -0.3049     0.0000    -0.2500
    24     8     1.5127     0.7362     1.0929     0.3617     0.3333     0.0833
    25     8     1.3939     0.9420     5.4645     0.3333     0.3617     0.4167
    26     8     0.0000    -1.4723    -3.2787     0.0000    -0.3049    -0.2500
    27     8    -1.3939     0.9420     1.0929    -0.3333     0.0284     0.0833
    28     8    -1.5127     0.7362     5.4645    -0.3617    -0.0284     0.4167
    29     8     1.2751     0.7362    -3.2787     0.3049     0.3049    -0.2500
    30     8    -0.1188    -1.6781     1.0929    -0.0284    -0.3617     0.0833

 **************************** SUPERCELL GENERATED ****************************

 **** ATOMS IN THE SUPERCELL REORDERED FOR PHONON CALCULATION
      ATOMS IN THE SMALL CELL ON TOP

 LABEL AT.NO.      COORDINATES (ANGSTROM)
     1    13    -2.7878     0.0000     0.2564
     2    13     0.0000     0.0000     1.9294
     3    13    -1.3939    -2.4143    -0.2564
     4    13     0.0000     0.0000    -1.9294
     5     8    -1.5127    -0.7362    -1.0929
     6     8     1.3939    -0.9420    -1.0929
     7     8     0.1188     1.6781    -1.0929
     8     8     1.5127     0.7362     1.0929
     9     8    -1.3939     0.9420     1.0929
    10     8    -0.1188    -1.6781     1.0929
    11    13     1.3939    -2.4143    -6.3010
    12    13    -1.3939     2.4143     6.3010
    13     8     1.2751    -0.7362     3.2787
    14     8    -0.1188     1.6781    -5.4645
    15    13     1.3939    -2.4143    -2.4422
    16     8     0.0000     1.4723     3.2787
    17     8    -1.3939    -0.9420    -5.4645
    18    13    -1.3939     2.4143    -4.1152
    19     8    -1.2751    -0.7362     3.2787
    20     8     1.5127    -0.7362    -5.4645
    21    13     1.3939    -2.4143     4.1152
    22     8     0.1188    -1.6781     5.4645
    23     8    -1.2751     0.7362    -3.2787
    24    13     0.0000     0.0000    -4.6280
    25     8     1.3939     0.9420     5.4645
    26     8     0.0000    -1.4723    -3.2787
    27    13     0.0000     0.0000     4.6280
    28     8    -1.5127     0.7362     5.4645
    29     8     1.2751     0.7362    -3.2787
    30    13    -1.3939     2.4143     2.4422
 INFORMATION **** NEW DEFAULT **** FINALRUN 4 FOR GEOMETRY OPTIMIZATIONS
 INFORMATION **** NEW DEFAULT **** OPTGEOM OPTIMIZES BOTH ATOMIC COORDINATES AND CELL PARAMETERS
 INFORMATION **** NEW DEFAULT **** TOL. ON ATOMIC DISP TO REDEFINE REF. GEOMETRY: 0.8 Angs
 INFORMATION **** NEW DEFAULT **** N POINTS TO REDEFINE REF. GEOMETRY: N OF OPT DEGS OF FREEDOM
 INFORMATION **** NEW DEFAULT **** TOL. ON ENERGY TO REDEFINE REF. GEOMETRY: 10**-3*(5*N. ATOMS)

 IMPORTANT INFORMATION:
 THE COORDINATE SYSTEM ADOPTED IN THE OPTIMIZATION IS NOT IN
 GENERAL HOMOGENEOUS UNITS. FOR THIS REASON THE GRADIENT AND 
 HESSIAN MATRIX IN TERMS OF THIS SYSTEM ARE GIVEN WITHOUT
 UNITS. FOR MORE DETAILS SEE THE MANUAL.

 INITIAL TRUST RADIUS         0.50000 MAXIMUM TRUST RADIUS               4.00000
 MAXIMUM GRADIENT COMPONENT   0.00045 MAXIMUM DISPLACEMENT COMPONENT     0.00180
 R.M.S. OF GRADIENT COMPONENT 0.00030 R.M.S. OF DISPLACEMENT COMPONENTS  0.00120
 THRESHOLD ON ENERGY CHANGE 0.100E-06 EXTRAPOLATING POLYNOMIAL ORDER           2
 MAXIMUM ALLOWED NUMBER OF STEPS   -1 SORTING OF ENERGY POINTS:               NO
 ANALYTICAL  GRADIENT                 HESSIAN UPDATING                      BFGS
 STEP SIZE NUMERICAL GRADIENT 0.00100
 INITIAL HESSIAN MATRIX: SCHLEGEL MODEL 2
 *******************************************************************************


 EOSEOSEOSEOSEOSEOSEOSEOSEOSEOSEOSEOSEOSEOSEOSEOSEOSEOSEOSEOSEOSEOSEOSEOSEOSEOS

                       EQUATION OF STATE CALCULATION

 INFORMATION **** TOLDEX **** CONVERGENCE CRITERION FOR RMS DISPLACEMENT MODIFIED  6.200000E-04
 INFORMATION **** TOLDEG **** MODIFY CONVERGENCE CRITERION FOR RMS GRADIENT  3.000000E-04
 INFORMATION **** TOLDEE **** CONVERGENCE CRITERION FOR ENERGY MODIFIED: 10**-           9
 TEMPERATURE FOR THERMO ANALYSIS   10.00 KELVIN - 1200.00 KELVIN (POINTS100)

 GCALCO - MAX INDICES DIRECT LATTICE VECTOR    21    21     7
 NO.OF VECTORS CREATED 6999 STARS  365 RMAX   143.84370 BOHR

 GEOMETRY FOR WAVE FUNCTION - DIMENSIONALITY OF THE SYSTEM    3
 (NON PERIODIC DIRECTION: LATTICE PARAMETER FORMALLY SET TO 500)
 *******************************************************************************
 LATTICE PARAMETERS (ANGSTROMS AND DEGREES) - BOHR = 0.5291772083 ANGSTROM
 PRIMITIVE CELL - CENTRING CODE 1/1 VOLUME=   264.812216 - DENSITY  3.836 g/cm^3
         A              B              C           ALPHA      BETA       GAMMA 
     4.82860168     4.82860168    13.11488905    90.000000  90.000000 120.000000
 *******************************************************************************
 ATOMS IN THE ASYMMETRIC UNIT    9 - ATOMS IN THE UNIT CELL:   30
     ATOM                 X/A                 Y/B                 Z/C    
 *******************************************************************************
      1 T  13 AL    3.333333333333E-01 -3.333333333333E-01  1.955179055198E-02
      2 T  13 AL    0.000000000000E+00 -1.946749008335E-16  1.471148761147E-01
      3 F  13 AL   -3.333333333333E-01  3.333333333333E-01 -1.955179055198E-02
      4 F  13 AL   -1.475192334009E-16  1.574168280393E-16 -1.471148761147E-01
      5 T   8 O    -3.617448850731E-01 -3.333333333333E-01 -8.333333333333E-02
      6 F   8 O     3.333333333333E-01 -2.841155173978E-02 -8.333333333333E-02
      7 F   8 O     2.841155173978E-02  3.617448850731E-01 -8.333333333333E-02
      8 F   8 O     3.617448850731E-01  3.333333333333E-01  8.333333333333E-02
      9 F   8 O    -3.333333333333E-01  2.841155173978E-02  8.333333333333E-02
     10 F   8 O    -2.841155173978E-02 -3.617448850731E-01  8.333333333333E-02
     11 T  13 AL    3.333333333333E-01 -3.333333333333E-01 -4.804482094480E-01
     12 F  13 AL   -3.333333333333E-01  3.333333333333E-01  4.804482094480E-01
     13 T   8 O     3.049217815935E-01 -2.775557561563E-17  2.500000000000E-01
     14 T   8 O    -2.841155173978E-02  3.333333333333E-01 -4.166666666667E-01
     15 T  13 AL    3.333333333333E-01 -3.333333333333E-01 -1.862184572186E-01
     16 F   8 O    -1.110223024625E-16  3.049217815936E-01  2.500000000000E-01
     17 F   8 O    -3.333333333333E-01 -3.617448850731E-01 -4.166666666667E-01
     18 T  13 AL   -3.333333333333E-01  3.333333333333E-01 -3.137815427814E-01
     19 F   8 O    -3.049217815935E-01 -3.049217815936E-01  2.500000000000E-01
     20 F   8 O     3.617448850731E-01  2.841155173978E-02 -4.166666666667E-01
     21 F  13 AL    3.333333333333E-01 -3.333333333333E-01  3.137815427814E-01
     22 F   8 O     2.841155173978E-02 -3.333333333333E-01  4.166666666667E-01
     23 F   8 O    -3.049217815936E-01  1.665334536938E-16 -2.500000000000E-01
     24 T  13 AL   -5.309922868832E-17  2.220446049250E-16 -3.528851238853E-01
     25 F   8 O     3.333333333333E-01  3.617448850731E-01  4.166666666667E-01
     26 F   8 O     0.000000000000E+00 -3.049217815936E-01 -2.500000000000E-01
     27 F  13 AL   -1.061984573766E-16 -5.309922868832E-17  3.528851238853E-01
     28 F   8 O    -3.617448850731E-01 -2.841155173978E-02  4.166666666667E-01
     29 F   8 O     3.049217815935E-01  3.049217815936E-01 -2.500000000000E-01
     30 F  13 AL   -3.333333333333E-01  3.333333333333E-01  1.862184572186E-01

 T = ATOM BELONGING TO THE ASYMMETRIC UNIT

 ****    6 SYMMOPS - TRANSLATORS IN FRACTIONAL UNITS
 **** MATRICES AND TRANSLATORS IN THE CRYSTALLOGRAPHIC REFERENCE FRAME
   V INV                    ROTATION MATRICES                   TRANSLATORS
   1   1  1.00  0.00  0.00  0.00  1.00  0.00  0.00  0.00  1.00  0.00  0.00  0.00
   2   3  0.00 -1.00  0.00  1.00 -1.00  0.00  0.00  0.00  1.00  0.00  0.00  0.00
   3   2 -1.00  1.00  0.00 -1.00  0.00  0.00  0.00  0.00  1.00  0.00  0.00  0.00
   4   4 -1.00  0.00  0.00  0.00 -1.00  0.00  0.00  0.00 -1.00  0.00  0.00  0.00
   5   6  0.00  1.00  0.00 -1.00  1.00  0.00  0.00  0.00 -1.00  0.00  0.00  0.00
   6   5  1.00 -1.00  0.00  1.00  0.00  0.00  0.00  0.00 -1.00  0.00  0.00  0.00

 DIRECT LATTICE VECTORS CARTESIAN COMPONENTS (ANGSTROM)
          X                    Y                    Z
   0.418169171964E+01  -0.241430084000E+01   0.000000000000E+00
   0.000000000000E+00   0.482860168000E+01   0.000000000000E+00
   0.000000000000E+00   0.000000000000E+00   0.131148890500E+02


 CARTESIAN COORDINATES - PRIMITIVE CELL
 *******************************************************************************
 *      ATOM          X(ANGSTROM)         Y(ANGSTROM)         Z(ANGSTROM)
 *******************************************************************************
    1    13 AL   -2.787794479757E+00 -2.350018883046E-16  2.564195638181E-01
    2    13 AL    0.000000000000E+00 -9.400075532184E-16  1.929395277849E+00
    3    13 AL   -1.393897239879E+00 -2.414300840000E+00 -2.564195638181E-01
    4    13 AL   -6.168799567996E-16  1.116258969447E-15 -1.929395277849E+00
    5     8 O    -1.512705590531E+00 -7.361729134356E-01 -1.092907420833E+00
    6     8 O     1.393897239879E+00 -9.419550131288E-01 -1.092907420833E+00
    7     8 O     1.188083506523E-01  1.678127926564E+00 -1.092907420833E+00
    8     8 O     1.512705590531E+00  7.361729134356E-01  1.092907420833E+00
    9     8 O    -1.393897239879E+00  9.419550131288E-01  1.092907420833E+00
   10     8 O    -1.188083506523E-01 -1.678127926564E+00  1.092907420833E+00
   11    13 AL    1.393897239879E+00 -2.414300840000E+00 -6.301024961182E+00
   12    13 AL   -1.393897239879E+00  2.414300840000E+00  6.301024961182E+00
   13     8 O     1.275088889226E+00 -7.361729134356E-01  3.278722262500E+00
   14     8 O    -1.188083506523E-01  1.678127926564E+00 -5.464537104167E+00
   15    13 AL    1.393897239879E+00 -2.414300840000E+00 -2.442234405485E+00
   16     8 O    -4.642610429024E-16  1.472345826871E+00  3.278722262500E+00
   17     8 O    -1.393897239879E+00 -9.419550131288E-01 -5.464537104167E+00
   18    13 AL   -1.393897239879E+00  2.414300840000E+00 -4.115210119515E+00
   19     8 O    -1.275088889226E+00 -7.361729134356E-01  3.278722262500E+00
   20     8 O     1.512705590531E+00 -7.361729134356E-01 -5.464537104167E+00
   21    13 AL    1.393897239879E+00 -2.414300840000E+00  4.115210119515E+00
   22     8 O     1.188083506523E-01 -1.678127926564E+00  5.464537104167E+00
   23     8 O    -1.275088889226E+00  7.361729134356E-01 -3.278722262500E+00
   24    13 AL   -2.220446049250E-16  1.200362464802E-15 -4.628049247151E+00
   25     8 O     1.393897239879E+00  9.419550131288E-01  5.464537104167E+00
   26     8 O     0.000000000000E+00 -1.472345826871E+00 -3.278722262500E+00
   27    13 AL   -4.440892098501E-16 -5.218090144523E-32  4.628049247151E+00
   28     8 O    -1.512705590531E+00  7.361729134356E-01  5.464537104167E+00
   29     8 O     1.275088889226E+00  7.361729134356E-01 -3.278722262500E+00
   30    13 AL   -1.393897239879E+00  2.414300840000E+00  2.442234405485E+00

 *******************************************************************************
 LOCAL ATOMIC FUNCTIONS BASIS SET
 *******************************************************************************
   ATOM   X(AU)   Y(AU)   Z(AU)  N. TYPE  EXPONENT  S COEF   P COEF   D/F/G COEF
 *******************************************************************************
   1 AL  -5.268   0.000   0.485
                                  1 S  
                                         7.051E+04 2.260E-04 0.000E+00 0.000E+00
                                         1.008E+04 1.900E-03 0.000E+00 0.000E+00
                                         2.131E+03 1.100E-02 0.000E+00 0.000E+00
                                         5.475E+02 5.090E-02 0.000E+00 0.000E+00
                                         1.631E+02 1.697E-01 0.000E+00 0.000E+00
                                         5.448E+01 3.688E-01 0.000E+00 0.000E+00
                                         1.905E+01 3.546E-01 0.000E+00 0.000E+00
                                         5.402E+00 4.430E-02 0.000E+00 0.000E+00
                           2-     5 SP 
                                         1.396E+02-1.120E-02 8.900E-03 0.000E+00
                                         3.253E+01-1.136E-01 6.060E-02 0.000E+00
                                         1.023E+01-7.110E-02 1.974E-01 0.000E+00
                                         3.810E+00 5.269E-01 3.186E-01 0.000E+00
                                         1.517E+00 7.675E-01 2.995E-01 0.000E+00
                           6-     9 SP 
                                         5.900E-01 1.000E+00 1.000E+00 0.000E+00
                          10-    13 SP 
                                         3.500E-01 1.000E+00 1.000E+00 0.000E+00
                          14-    18 D  
                                         5.100E-01 0.000E+00 0.000E+00 1.000E+00
   2 AL   0.000   0.000   3.646
   3 AL  -2.634  -4.562  -0.485
   4 AL   0.000   0.000  -3.646
   5 O   -2.859  -1.391  -2.065
                                 73 S  
                                         8.020E+03 1.080E-03 0.000E+00 0.000E+00
                                         1.338E+03 8.040E-03 0.000E+00 0.000E+00
                                         2.554E+02 5.324E-02 0.000E+00 0.000E+00
                                         6.922E+01 1.681E-01 0.000E+00 0.000E+00
                                         2.390E+01 3.581E-01 0.000E+00 0.000E+00
                                         9.264E+00 3.855E-01 0.000E+00 0.000E+00
                                         3.851E+00 1.468E-01 0.000E+00 0.000E+00
                                         1.212E+00 7.280E-02 0.000E+00 0.000E+00
                          74-    77 SP 
                                         4.943E+01-8.830E-03 9.580E-03 0.000E+00
                                         1.047E+01-9.150E-02 6.960E-02 0.000E+00
                                         3.235E+00-4.020E-02 2.065E-01 0.000E+00
                                         1.217E+00 3.790E-01 3.470E-01 0.000E+00
                          78-    81 SP 
                                         5.000E-01 1.000E+00 1.000E+00 0.000E+00
                          82-    85 SP 
                                         1.910E-01 1.000E+00 1.000E+00 0.000E+00
                          86-    90 D  
                                         5.000E-01 0.000E+00 0.000E+00 1.000E+00
   6 O    2.634  -1.780  -2.065
   7 O    0.225   3.171  -2.065
   8 O    2.859   1.391   2.065
   9 O   -2.634   1.780   2.065
  10 O   -0.225  -3.171   2.065
  11 AL   2.634  -4.562 -11.907
  12 AL  -2.634   4.562  11.907
  13 O    2.410  -1.391   6.196
  14 O   -0.225   3.171 -10.326
  15 AL   2.634  -4.562  -4.615
  16 O    0.000   2.782   6.196
  17 O   -2.634  -1.780 -10.326
  18 AL  -2.634   4.562  -7.777
  19 O   -2.410  -1.391   6.196
  20 O    2.859  -1.391 -10.326
  21 AL   2.634  -4.562   7.777
  22 O    0.225  -3.171  10.326
  23 O   -2.410   1.391  -6.196
  24 AL   0.000   0.000  -8.746
  25 O    2.634   1.780  10.326
  26 O    0.000  -2.782  -6.196
  27 AL   0.000   0.000   8.746
  28 O   -2.859   1.391  10.326
  29 O    2.410   1.391  -6.196
  30 AL  -2.634   4.562   4.615
 INFORMATION **** SET_MPP **** PCRYSTAL CALCULATION
 INFORMATION **** READM2 **** NEW DEFAULT: FOCK/KS MATRIX MIXING SET TO 30 %
 INFORMATION **** READM2 **** NEW DEFAULT: FULL DIRECT SCF MODE
 INFORMATION **** READM2 **** NEW DEFAULT: COULOMB BIPOLAR BUFFER SET TO 32 Mb
 INFORMATION **** READM2 **** NEW DEFAULT: EXCHANGE BIPOLAR BUFFER SET TO 32 Mb

 *******************************************************************************
 NEW DEFAULT: DFT INTEGRATION GRID INCREASED TO XLGRID
 NEW DEFAULT: LEVEL SHIFTER 6 0
 IF THE SYSTEM IS A METAL USE KEYWORD NOSHIFT
 *******************************************************************************

 INFORMATION **** TOLDEE **** SCF TOL ON TOTAL ENERGY SET TO           9
 INFORMATION **** MAXCYCLE **** MAX NUMBER OF SCF CYCLES SET TO         200
 WARNING **** READM2 **** PROBABLE LOSS IN FREQCALC ACCURACY; SCF TOL LT          10
 *******************************************************************************
 N. OF ATOMS PER CELL        30  COULOMB OVERLAP TOL         (T1) 10**   -6
 NUMBER OF SHELLS           150  COULOMB PENETRATION TOL     (T2) 10**   -6
 NUMBER OF AO               540  EXCHANGE OVERLAP TOL        (T3) 10**   20
 N. OF ELECTRONS PER CELL   300  EXCHANGE PSEUDO OVP (F(G))  (T4) 10**   20
 CORE ELECTRONS PER CELL    156  EXCHANGE PSEUDO OVP (P(G))  (T5) 10**   20
 N. OF SYMMETRY OPERATORS     6  POLE ORDER IN MONO ZONE                  4
 *******************************************************************************
 TYPE OF CALCULATION :  RESTRICTED CLOSED SHELL
 KOHN-SHAM HAMILTONIAN

 (EXCHANGE)[CORRELATION] FUNCTIONAL:(PERDEW-BURKE-ERNZERHOF)[PERDEW-BURKE-ERNZERHOF]

 EIGENVALUE LEVEL SHIFTING OF  0.600 HARTREE

 CAPPA:IS1  2;IS2  2;IS3  2; K PTS MONK NET   4; SYMMOPS:K SPACE   6;G SPACE   6

 *******************************************************************************
 MAX NUMBER OF SCF CYCLES     200  CONVERGENCE ON DELTAP        10**-19
 WEIGHT OF F(I) IN F(I+1)      30% CONVERGENCE ON ENERGY        10**- 9
 EIGENVALUE LEVEL SHIFTING OF  0.600 HARTREE
 SHRINK. FACT.(MONKH.)    2  2  2  NUMBER OF K POINTS IN THE IBZ      4
 SHRINKING FACTOR(GILAT NET)    2  NUMBER OF K POINTS(GILAT NET)      4
 *******************************************************************************
 *** K POINTS COORDINATES (OBLIQUE COORDINATES IN UNITS OF IS =  2)
   1-R(  0  0  0)   2-R(  1  0  0)   3-R(  0  0  1)   4-R(  1  0  1)

 DIRECT LATTICE VECTORS COMPON. (A.U.)     RECIP. LATTICE VECTORS COMPON. (A.U.) 
        X            Y            Z              X            Y            Z
    7.9022521   -4.5623674    0.0000000      0.7951132    0.0000000    0.0000000
    0.0000000    9.1247348    0.0000000      0.3975566    0.6885883    0.0000000
    0.0000000    0.0000000   24.7835486      0.0000000    0.0000000    0.2535224

 DISK SPACE FOR EIGENVECTORS (FTN 10)     1166400 REALS

 SYMMETRY ADAPTION OF THE BLOCH FUNCTIONS ENABLED
 TTTTTTTTTTTTTTTTTTTTTTTTTTTTTT gordsh1     TELAPSE        1.10 TCPU        0.03

 MATRIX SIZE: P(G)  330432, F(G)  165702, P(G) IRR   29704, F(G) IRR   29704
 MAX G-VECTOR INDEX FOR 1- AND 2-ELECTRON INTEGRALS  63

 TTTTTTTTTTTTTTTTTTTTTTTTTTTTTT INPUT       TELAPSE        1.10 TCPU        0.03

 NEIGHBORS OF THE NON-EQUIVALENT ATOMS

 N = NUMBER OF NEIGHBORS AT DISTANCE R
    ATOM  N     R/ANG      R/AU   NEIGHBORS (ATOM LABELS AND CELL INDICES)
   1 AL   3     1.8788     3.5504    8 O   -1-1 0    9 O    0 0 0   10 O   -1 0 0
   1 AL   3     1.9971     3.7740    5 O    0 0 0    6 O   -1 0 0    7 O   -1-1 0
   1 AL   1     2.6987     5.0997   15 AL  -1 0 0
   1 AL   3     2.8346     5.3566    3 AL   0 0 0    3 AL  -1 0 0    3 AL   0 1 0
   1 AL   3     3.2513     6.1440    2 AL   0 0 0    2 AL  -1-1 0    2 AL  -1 0 0
   1 AL   3     3.2618     6.1639    8 O   -1 0 0    9 O   -1-1 0   10 O    0 0 0

   2 AL   3     1.8788     3.5504    8 O    0 0 0    9 O    0 0 0   10 O    0 0 0
   2 AL   3     1.9971     3.7740   13 O    0 0 0   16 O    0 0 0   19 O    0 0 0
   2 AL   1     2.6987     5.0997   27 AL   0 0 0
   2 AL   3     2.8346     5.3566   30 AL   0 0 0   30 AL   1 0 0   30 AL   0-1 0
   2 AL   3     3.2513     6.1440    1 AL   0 0 0    1 AL   1 1 0    1 AL   1 0 0
   2 AL   3     3.2618     6.1639    8 O   -1-1 0    9 O    1 0 0   10 O    0 1 0

   5 O    2     1.8788     3.5504    3 AL   0 0 0    4 AL   0 0 0
   5 O    2     1.9971     3.7740    1 AL   0 0 0   15 AL  -1 0 0
   5 O    2     2.5502     4.8191    6 O   -1 0 0    7 O   -1-1 0
   5 O    2     2.6461     5.0005    8 O   -1-1 0   23 O    0 0 0
   5 O    4     2.7583     5.2124    9 O    0 0 0   10 O    0 0 0   26 O    0 0 0
                                    29 O   -1-1 0
   5 O    4     2.9139     5.5064    6 O    0 0 0    6 O   -1-1 0    7 O    0 0 0
                                     7 O    0-1 0

  11 AL   3     1.8788     3.5504   14 O    0-1 0   17 O    1 0 0   20 O    0 0 0
  11 AL   3     1.9971     3.7740   22 O    0 0-1   25 O    0-1-1   28 O    1 0-1
  11 AL   1     2.6987     5.0997   21 AL   0 0-1
  11 AL   3     2.8346     5.3566   12 AL   1 0-1   12 AL   0-1-1   12 AL   1-1-1
  11 AL   3     3.2513     6.1440   24 AL   0 0 0   24 AL   1 0 0   24 AL   0-1 0
  11 AL   3     3.2618     6.1639   14 O    1 0 0   17 O    0 0 0   20 O    0-1 0

  13 O    2     1.8788     3.5504   21 AL   0 0 0   30 AL   1 0 0
  13 O    2     1.9971     3.7740    2 AL   0 0 0   27 AL   0 0 0
  13 O    2     2.5502     4.8191   16 O    0 0 0   19 O    0 0 0
  13 O    2     2.6461     5.0005    8 O    0 0 0   22 O    0 0 0
  13 O    4     2.7583     5.2124    9 O    1 0 0   10 O    0 0 0   25 O    0 0 0
                                    28 O    1 0 0
  13 O    4     2.9139     5.5064   16 O    1 0 0   16 O    0-1 0   19 O    1 1 0
                                    19 O    1 0 0

  14 O    2     1.8788     3.5504   11 AL   0 1 0   24 AL   0 0 0
  14 O    2     1.9971     3.7740   12 AL   0 0-1   18 AL   0 0 0
  14 O    2     2.5502     4.8191   17 O    0 1 0   20 O   -1 0 0
  14 O    2     2.6461     5.0005   22 O    0 1-1   23 O    0 0 0
  14 O    4     2.7583     5.2124   25 O    0 0-1   26 O    0 1 0   28 O    0 0-1
                                    29 O    0 0 0
  14 O    4     2.9139     5.5064   17 O    0 0 0   17 O    1 1 0   20 O    0 0 0
                                    20 O    0 1 0

  15 AL   3     1.8788     3.5504   23 O    1 0 0   26 O    0 0 0   29 O    0-1 0
  15 AL   3     1.9971     3.7740    5 O    1 0 0    6 O    0 0 0    7 O    0-1 0
  15 AL   1     2.6987     5.0997    1 AL   1 0 0
  15 AL   3     2.8346     5.3566    4 AL   0 0 0    4 AL   1 0 0    4 AL   0-1 0
  15 AL   3     3.2513     6.1440   18 AL   1 0 0   18 AL   0-1 0   18 AL   1-1 0
  15 AL   3     3.2618     6.1639   23 O    0-1 0   26 O    1 0 0   29 O    0 0 0

  18 AL   3     1.8788     3.5504   23 O    0 0 0   26 O    0 1 0   29 O   -1 0 0
  18 AL   3     1.9971     3.7740   14 O    0 0 0   17 O    0 1 0   20 O   -1 0 0
  18 AL   1     2.6987     5.0997   12 AL   0 0-1
  18 AL   3     2.8346     5.3566   24 AL   0 0 0   24 AL  -1 0 0   24 AL   0 1 0
  18 AL   3     3.2513     6.1440   15 AL  -1 0 0   15 AL   0 1 0   15 AL  -1 1 0
  18 AL   3     3.2618     6.1639   23 O    0 1 0   26 O   -1 0 0   29 O    0 0 0

  24 AL   3     1.8788     3.5504   14 O    0 0 0   17 O    0 0 0   20 O    0 0 0
  24 AL   3     1.9971     3.7740   23 O    0 0 0   26 O    0 0 0   29 O    0 0 0
  24 AL   1     2.6987     5.0997    4 AL   0 0 0
  24 AL   3     2.8346     5.3566   18 AL   0 0 0   18 AL   1 0 0   18 AL   0-1 0
  24 AL   3     3.2513     6.1440   11 AL   0 0 0   11 AL  -1 0 0   11 AL   0 1 0
  24 AL   3     3.2618     6.1639   14 O    0-1 0   17 O    1 1 0   20 O   -1 0 0


 SYMMETRY ALLOWED INTERNAL DEGREE(S) OF FREEDOM:  15
 TTTTTTTTTTTTTTTTTTTTTTTTTTTTTT SYMM        TELAPSE        4.13 TCPU        3.06
 TTTTTTTTTTTTTTTTTTTTTTTTTTTTTT INT_SCREEN  TELAPSE        4.13 TCPU        3.06

 ************************************************************************
 ************************************************************************
 EOS OPTION, W.F. PERGER, B. CIVALLERI, R. DOVESI, C.M. ZICOVICH, SEPTEMBER 2010
             A. ERBA 2013 
 CONVERGENCE CRITERION FOR ENERGY, TOLDEE =   1.0000E-09
 CONVERGENCE CRITERION FOR RMS GRADIENT, TOLDEG =   3.0000E-04
 CONVERGENCE CRITERION FOR RMS DISPLACEMENT, TOLDEX =  6.2000E-04
 NUMBER OF POINTS (TOTAL) DETERMINING E-V CURVE=     6
 RANGE OF VOLUMES, IN %:     92.0000    108.0000
 ************************************************************************
 ************************************************************************
 TTTTTTTTTTTTTTTTTTTTTTTTTTTTTT gordsh1     TELAPSE        4.14 TCPU        3.07

 MATRIX SIZE: P(G)  330432, F(G)  165702, P(G) IRR   29704, F(G) IRR   29704
 MAX G-VECTOR INDEX FOR 1- AND 2-ELECTRON INTEGRALS  63

 TTTTTTTTTTTTTTTTTTTTTTTTTTTTTT INPUT       TELAPSE        4.14 TCPU        3.07

 NEIGHBORS OF THE NON-EQUIVALENT ATOMS

 N = NUMBER OF NEIGHBORS AT DISTANCE R
    ATOM  N     R/ANG      R/AU   NEIGHBORS (ATOM LABELS AND CELL INDICES)
   1 AL   3     1.8788     3.5504    8 O   -1-1 0    9 O    0 0 0   10 O   -1 0 0
   1 AL   3     1.9971     3.7740    5 O    0 0 0    6 O   -1 0 0    7 O   -1-1 0
   1 AL   1     2.6987     5.0997   15 AL  -1 0 0
   1 AL   3     2.8346     5.3566    3 AL   0 0 0    3 AL  -1 0 0    3 AL   0 1 0
   1 AL   3     3.2513     6.1440    2 AL   0 0 0    2 AL  -1-1 0    2 AL  -1 0 0
   1 AL   3     3.2618     6.1639    8 O   -1 0 0    9 O   -1-1 0   10 O    0 0 0

   2 AL   3     1.8788     3.5504    8 O    0 0 0    9 O    0 0 0   10 O    0 0 0
   2 AL   3     1.9971     3.7740   13 O    0 0 0   16 O    0 0 0   19 O    0 0 0
   2 AL   1     2.6987     5.0997   27 AL   0 0 0
   2 AL   3     2.8346     5.3566   30 AL   0 0 0   30 AL   1 0 0   30 AL   0-1 0
   2 AL   3     3.2513     6.1440    1 AL   0 0 0    1 AL   1 1 0    1 AL   1 0 0
   2 AL   3     3.2618     6.1639    8 O   -1-1 0    9 O    1 0 0   10 O    0 1 0

   5 O    2     1.8788     3.5504    3 AL   0 0 0    4 AL   0 0 0
   5 O    2     1.9971     3.7740    1 AL   0 0 0   15 AL  -1 0 0
   5 O    2     2.5502     4.8191    6 O   -1 0 0    7 O   -1-1 0
   5 O    2     2.6461     5.0005    8 O   -1-1 0   23 O    0 0 0
   5 O    4     2.7583     5.2124    9 O    0 0 0   10 O    0 0 0   26 O    0 0 0
                                    29 O   -1-1 0
   5 O    4     2.9139     5.5064    6 O    0 0 0    6 O   -1-1 0    7 O    0 0 0
                                     7 O    0-1 0

  11 AL   3     1.8788     3.5504   14 O    0-1 0   17 O    1 0 0   20 O    0 0 0
  11 AL   3     1.9971     3.7740   22 O    0 0-1   25 O    0-1-1   28 O    1 0-1
  11 AL   1     2.6987     5.0997   21 AL   0 0-1
  11 AL   3     2.8346     5.3566   12 AL   1 0-1   12 AL   0-1-1   12 AL   1-1-1
  11 AL   3     3.2513     6.1440   24 AL   0 0 0   24 AL   1 0 0   24 AL   0-1 0
  11 AL   3     3.2618     6.1639   14 O    1 0 0   17 O    0 0 0   20 O    0-1 0

  13 O    2     1.8788     3.5504   21 AL   0 0 0   30 AL   1 0 0
  13 O    2     1.9971     3.7740    2 AL   0 0 0   27 AL   0 0 0
  13 O    2     2.5502     4.8191   16 O    0 0 0   19 O    0 0 0
  13 O    2     2.6461     5.0005    8 O    0 0 0   22 O    0 0 0
  13 O    4     2.7583     5.2124    9 O    1 0 0   10 O    0 0 0   25 O    0 0 0
                                    28 O    1 0 0
  13 O    4     2.9139     5.5064   16 O    1 0 0   16 O    0-1 0   19 O    1 1 0
                                    19 O    1 0 0

  14 O    2     1.8788     3.5504   11 AL   0 1 0   24 AL   0 0 0
  14 O    2     1.9971     3.7740   12 AL   0 0-1   18 AL   0 0 0
  14 O    2     2.5502     4.8191   17 O    0 1 0   20 O   -1 0 0
  14 O    2     2.6461     5.0005   22 O    0 1-1   23 O    0 0 0
  14 O    4     2.7583     5.2124   25 O    0 0-1   26 O    0 1 0   28 O    0 0-1
                                    29 O    0 0 0
  14 O    4     2.9139     5.5064   17 O    0 0 0   17 O    1 1 0   20 O    0 0 0
                                    20 O    0 1 0

  15 AL   3     1.8788     3.5504   23 O    1 0 0   26 O    0 0 0   29 O    0-1 0
  15 AL   3     1.9971     3.7740    5 O    1 0 0    6 O    0 0 0    7 O    0-1 0
  15 AL   1     2.6987     5.0997    1 AL   1 0 0
  15 AL   3     2.8346     5.3566    4 AL   0 0 0    4 AL   1 0 0    4 AL   0-1 0
  15 AL   3     3.2513     6.1440   18 AL   1 0 0   18 AL   0-1 0   18 AL   1-1 0
  15 AL   3     3.2618     6.1639   23 O    0-1 0   26 O    1 0 0   29 O    0 0 0

  18 AL   3     1.8788     3.5504   23 O    0 0 0   26 O    0 1 0   29 O   -1 0 0
  18 AL   3     1.9971     3.7740   14 O    0 0 0   17 O    0 1 0   20 O   -1 0 0
  18 AL   1     2.6987     5.0997   12 AL   0 0-1
  18 AL   3     2.8346     5.3566   24 AL   0 0 0   24 AL  -1 0 0   24 AL   0 1 0
  18 AL   3     3.2513     6.1440   15 AL  -1 0 0   15 AL   0 1 0   15 AL  -1 1 0
  18 AL   3     3.2618     6.1639   23 O    0 1 0   26 O   -1 0 0   29 O    0 0 0

  24 AL   3     1.8788     3.5504   14 O    0 0 0   17 O    0 0 0   20 O    0 0 0
  24 AL   3     1.9971     3.7740   23 O    0 0 0   26 O    0 0 0   29 O    0 0 0
  24 AL   1     2.6987     5.0997    4 AL   0 0 0
  24 AL   3     2.8346     5.3566   18 AL   0 0 0   18 AL   1 0 0   18 AL   0-1 0
  24 AL   3     3.2513     6.1440   11 AL   0 0 0   11 AL  -1 0 0   11 AL   0 1 0
  24 AL   3     3.2618     6.1639   14 O    0-1 0   17 O    1 1 0   20 O   -1 0 0


 SYMMETRY ALLOWED ELASTIC DISTORTION 1
  0.5773503  0.0000000  0.0000000
  0.0000000  0.5773503  0.0000000
  0.0000000  0.0000000  0.5773503

 SYMMETRY ALLOWED ELASTIC DISTORTION 2
  0.4082483  0.0000000  0.0000000
  0.0000000  0.4082483  0.0000000
  0.0000000  0.0000000 -0.8164966

 SYMMETRY ALLOWED INTERNAL DEGREE(S) OF FREEDOM:  15
 TTTTTTTTTTTTTTTTTTTTTTTTTTTTTT SYMM        TELAPSE        4.17 TCPU        3.10
 TTTTTTTTTTTTTTTTTTTTTTTTTTTTTT INT_SCREEN  TELAPSE        4.18 TCPU        3.10
 INFORMATION **** EXCBUF **** EXCH. BIPO BUFFER: WORDS USED =           0

 DFT PARAMETERS

     ATOM       ELECTRONS   NET CHARGE   R(ANGSTROM)
   1  13  AL     13.0000      0.0000     1.43000000
   5   8  O       8.0000      0.0000     0.74000000

 SIZE OF GRID=     107388
 TTTTTTTTTTTTTTTTTTTTTTTTTTTTTT MAKE_GRID2  TELAPSE       12.22 TCPU       11.15
 BECKE WEIGHT FUNCTION
 RADSAFE =     2.00
 TOLERANCES - DENSITY:10**- 6; POTENTIAL:10**- 9; GRID WGT:10**-14

 RADIAL INTEGRATION  - INTERVALS (POINTS,UPPER LIMIT):            1( 75,  4.0*R)

 ANGULAR INTEGRATION - INTERVALS (ACCURACY LEVEL [N. POINTS] UPPER LIMIT):
  1(  4[  86]   0.2)  2(  8[ 194]   0.5)  3( 12[ 350]   0.9)  4( 16[ 974]   3.5)
  5( 12[ 350]9999.0)
 TTTTTTTTTTTTTTTTTTTTTTTTTTTTTT INT_CALC    TELAPSE       12.27 TCPU       11.19

 *******************************************************************************
 CORUNDUM                                                                        
 CRYSTAL - SCF - TYPE OF CALCULATION :  RESTRICTED CLOSED SHELL
 *******************************************************************************

 CAPPA:IS1  2;IS2  2;IS3  2; K PTS MONK NET   4; SYMMOPS:K SPACE   6;G SPACE   6

 TTTTTTTTTTTTTTTTTTTTTTTTTTTTTT SDIK        TELAPSE       12.30 TCPU       11.23

 AAAAAAAAAAAAAAAAAAAAAAAAAAAAAAAAAAAAAAAAAAAAAAAAAAAAAAAAAAAAAAAAAAAAAAAAAAAAAAA
         ATOMIC WAVEFUNCTION(S)


 NUCLEAR CHARGE 13.0  SYMMETRY SPECIES            S    P
 N. ELECTRONS   13.0  NUMBER OF PRIMITIVE GTOS   15    7
                      NUMBER OF CONTRACTED GTOS   4    3
                      NUMBER OF CLOSED SHELLS     3    1
                      OPEN SHELL OCCUPATION       0    1

  ZNUC SCFIT  TOTAL HF ENERGY   KINETIC ENERGY   VIRIAL THEOREM ACCURACY
  13.0   8   -2.413094219E+02  2.436920562E+02 -1.990222766E+00  1.0E-06

 NUCLEAR CHARGE  8.0  SYMMETRY SPECIES            S    P
 N. ELECTRONS    8.0  NUMBER OF PRIMITIVE GTOS   14    6
                      NUMBER OF CONTRACTED GTOS   4    3
                      NUMBER OF CLOSED SHELLS     2    0
                      OPEN SHELL OCCUPATION       0    4

  ZNUC SCFIT  TOTAL HF ENERGY   KINETIC ENERGY   VIRIAL THEOREM ACCURACY
   8.0  13   -7.480076780E+01  7.462318851E+01 -2.002379680E+00  2.9E-06

 AAAAAAAAAAAAAAAAAAAAAAAAAAAAAAAAAAAAAAAAAAAAAAAAAAAAAAAAAAAAAAAAAAAAAAAAAAAAAAA

 TTTTTTTTTTTTTTTTTTTTTTTTTTTTTT MOQGAD      TELAPSE       12.33 TCPU       11.26
 TTTTTTTTTTTTTTTTTTTTTTTTTTTTTT SHELLXN     TELAPSE       13.09 TCPU       12.01
 TTTTTTTTTTTTTTTTTTTTTTTTTTTTTT MONMO3      TELAPSE       13.61 TCPU       12.53
 NUMERICALLY INTEGRATED DENSITY    300.0002082493
 TTTTTTTTTTTTTTTTTTTTTTTTTTTTTT NUMDFT      TELAPSE       14.59 TCPU       13.51
 CYC   0 ETOT(AU) -4.254926311310E+03 DETOT -4.25E+03 tst  0.00E+00 PX  1.00E+00
 TTTTTTTTTTTTTTTTTTTTTTTTTTTTTT FDIK        TELAPSE       14.79 TCPU       13.71
 INSULATING STATE
 TOP OF VALENCE BANDS -    BAND    150; K    1; EIG -2.7339464E-01 AU
 BOTTOM OF VIRTUAL BANDS - BAND    151; K    1; EIG  4.4692247E-02 AU
 DIRECT ENERGY BAND GAP:   8.6556 eV
 TTTTTTTTTTTTTTTTTTTTTTTTTTTTTT PDIG        TELAPSE       14.80 TCPU       13.72
 TTTTTTTTTTTTTTTTTTTTTTTTTTTTTT MOQGAD      TELAPSE       14.82 TCPU       13.74
 TTTTTTTTTTTTTTTTTTTTTTTTTTTTTT SHELLXN     TELAPSE       15.73 TCPU       14.65
 TTTTTTTTTTTTTTTTTTTTTTTTTTTTTT MONMO3      TELAPSE       16.27 TCPU       15.19
 NUMERICALLY INTEGRATED DENSITY    300.0002557559
 TTTTTTTTTTTTTTTTTTTTTTTTTTTTTT NUMDFT      TELAPSE       18.75 TCPU       17.67
 CYC   1 ETOT(AU) -4.260364959509E+03 DETOT -5.44E+00 tst  0.00E+00 PX  1.00E+00
 TTTTTTTTTTTTTTTTTTTTTTTTTTTTTT FDIK        TELAPSE       18.81 TCPU       17.73
 INSULATING STATE
 TOP OF VALENCE BANDS -    BAND    150; K    1; EIG  2.0718617E-02 AU
 BOTTOM OF VIRTUAL BANDS - BAND    151; K    1; EIG  1.6916618E-01 AU
 DIRECT ENERGY BAND GAP:   4.0395 eV
 TTTTTTTTTTTTTTTTTTTTTTTTTTTTTT PDIG        TELAPSE       18.83 TCPU       17.75
 TTTTTTTTTTTTTTTTTTTTTTTTTTTTTT MOQGAD      TELAPSE       18.84 TCPU       17.76
 TTTTTTTTTTTTTTTTTTTTTTTTTTTTTT SHELLXN     TELAPSE       19.75 TCPU       18.67
 TTTTTTTTTTTTTTTTTTTTTTTTTTTTTT MONMO3      TELAPSE       20.30 TCPU       19.21
 NUMERICALLY INTEGRATED DENSITY    300.0002768266
 TTTTTTTTTTTTTTTTTTTTTTTTTTTTTT NUMDFT      TELAPSE       22.77 TCPU       21.67
 CYC   2 ETOT(AU) -4.263322870989E+03 DETOT -2.96E+00 tst  3.81E-02 PX  1.63E-01
 TTTTTTTTTTTTTTTTTTTTTTTTTTTTTT FDIK        TELAPSE       22.82 TCPU       21.73
 INSULATING STATE
 TOP OF VALENCE BANDS -    BAND    150; K    1; EIG -9.8369818E-02 AU
 BOTTOM OF VIRTUAL BANDS - BAND    151; K    1; EIG  1.1076262E-01 AU
 DIRECT ENERGY BAND GAP:   5.6908 eV
 TTTTTTTTTTTTTTTTTTTTTTTTTTTTTT PDIG        TELAPSE       22.84 TCPU       21.75
 TTTTTTTTTTTTTTTTTTTTTTTTTTTTTT MOQGAD      TELAPSE       22.85 TCPU       21.76
 TTTTTTTTTTTTTTTTTTTTTTTTTTTTTT SHELLXN     TELAPSE       23.77 TCPU       22.67
 TTTTTTTTTTTTTTTTTTTTTTTTTTTTTT MONMO3      TELAPSE       24.31 TCPU       23.21
 NUMERICALLY INTEGRATED DENSITY    300.0002549861
 TTTTTTTTTTTTTTTTTTTTTTTTTTTTTT NUMDFT      TELAPSE       26.80 TCPU       25.70
 CYC   3 ETOT(AU) -4.263408208625E+03 DETOT -8.53E-02 tst  9.32E-04 PX  3.96E-02
 TTTTTTTTTTTTTTTTTTTTTTTTTTTTTT FDIK        TELAPSE       26.86 TCPU       25.76
 INSULATING STATE
 TOP OF VALENCE BANDS -    BAND    150; K    1; EIG -1.3406477E-01 AU
 BOTTOM OF VIRTUAL BANDS - BAND    151; K    1; EIG  8.9222392E-02 AU
 DIRECT ENERGY BAND GAP:   6.0760 eV
 TTTTTTTTTTTTTTTTTTTTTTTTTTTTTT PDIG        TELAPSE       26.87 TCPU       25.78
 TTTTTTTTTTTTTTTTTTTTTTTTTTTTTT MOQGAD      TELAPSE       26.88 TCPU       25.79
 TTTTTTTTTTTTTTTTTTTTTTTTTTTTTT SHELLXN     TELAPSE       27.80 TCPU       26.71
 TTTTTTTTTTTTTTTTTTTTTTTTTTTTTT MONMO3      TELAPSE       28.34 TCPU       27.25
 NUMERICALLY INTEGRATED DENSITY    300.0002463450
 TTTTTTTTTTTTTTTTTTTTTTTTTTTTTT NUMDFT      TELAPSE       30.80 TCPU       29.70
 CYC   4 ETOT(AU) -4.263442611267E+03 DETOT -3.44E-02 tst  1.98E-04 PX  2.21E-02
 TTTTTTTTTTTTTTTTTTTTTTTTTTTTTT FDIK        TELAPSE       30.86 TCPU       29.76
 INSULATING STATE
 TOP OF VALENCE BANDS -    BAND    150; K    1; EIG -1.2678741E-01 AU
 BOTTOM OF VIRTUAL BANDS - BAND    151; K    1; EIG  9.1301991E-02 AU
 DIRECT ENERGY BAND GAP:   5.9345 eV
 TTTTTTTTTTTTTTTTTTTTTTTTTTTTTT PDIG        TELAPSE       30.87 TCPU       29.77
 TTTTTTTTTTTTTTTTTTTTTTTTTTTTTT MOQGAD      TELAPSE       30.88 TCPU       29.79
 TTTTTTTTTTTTTTTTTTTTTTTTTTTTTT SHELLXN     TELAPSE       31.80 TCPU       30.70
 TTTTTTTTTTTTTTTTTTTTTTTTTTTTTT MONMO3      TELAPSE       32.34 TCPU       31.24
 NUMERICALLY INTEGRATED DENSITY    300.0002456879
 TTTTTTTTTTTTTTTTTTTTTTTTTTTTTT NUMDFT      TELAPSE       34.80 TCPU       33.70
 CYC   5 ETOT(AU) -4.263443687009E+03 DETOT -1.08E-03 tst  8.57E-05 PX  5.91E-03
 TTTTTTTTTTTTTTTTTTTTTTTTTTTTTT FDIK        TELAPSE       34.86 TCPU       33.75
 INSULATING STATE
 TOP OF VALENCE BANDS -    BAND    150; K    1; EIG -1.2593366E-01 AU
 BOTTOM OF VIRTUAL BANDS - BAND    151; K    1; EIG  9.1096153E-02 AU
 DIRECT ENERGY BAND GAP:   5.9057 eV
 TTTTTTTTTTTTTTTTTTTTTTTTTTTTTT PDIG        TELAPSE       34.87 TCPU       33.77
 TTTTTTTTTTTTTTTTTTTTTTTTTTTTTT MOQGAD      TELAPSE       34.88 TCPU       33.78
 TTTTTTTTTTTTTTTTTTTTTTTTTTTTTT SHELLXN     TELAPSE       35.80 TCPU       34.70
 TTTTTTTTTTTTTTTTTTTTTTTTTTTTTT MONMO3      TELAPSE       36.34 TCPU       35.24
 NUMERICALLY INTEGRATED DENSITY    300.0002453883
 TTTTTTTTTTTTTTTTTTTTTTTTTTTTTT NUMDFT      TELAPSE       38.81 TCPU       37.71
 CYC   6 ETOT(AU) -4.263444087927E+03 DETOT -4.01E-04 tst  4.98E-05 PX  3.71E-03
 TTTTTTTTTTTTTTTTTTTTTTTTTTTTTT FDIK        TELAPSE       38.87 TCPU       37.77
 INSULATING STATE
 TOP OF VALENCE BANDS -    BAND    150; K    1; EIG -1.2780906E-01 AU
 BOTTOM OF VIRTUAL BANDS - BAND    151; K    1; EIG  8.9868540E-02 AU
 DIRECT ENERGY BAND GAP:   5.9233 eV
 TTTTTTTTTTTTTTTTTTTTTTTTTTTTTT PDIG        TELAPSE       38.88 TCPU       37.78
 TTTTTTTTTTTTTTTTTTTTTTTTTTTTTT MOQGAD      TELAPSE       38.90 TCPU       37.79
 TTTTTTTTTTTTTTTTTTTTTTTTTTTTTT SHELLXN     TELAPSE       39.82 TCPU       38.71
 TTTTTTTTTTTTTTTTTTTTTTTTTTTTTT MONMO3      TELAPSE       40.36 TCPU       39.25
 NUMERICALLY INTEGRATED DENSITY    300.0002449805
 TTTTTTTTTTTTTTTTTTTTTTTTTTTTTT NUMDFT      TELAPSE       42.82 TCPU       41.71
 CYC   7 ETOT(AU) -4.263444162769E+03 DETOT -7.48E-05 tst  2.10E-05 PX  1.40E-03
 TTTTTTTTTTTTTTTTTTTTTTTTTTTTTT FDIK        TELAPSE       42.88 TCPU       41.77
 INSULATING STATE
 TOP OF VALENCE BANDS -    BAND    150; K    1; EIG -1.2835037E-01 AU
 BOTTOM OF VIRTUAL BANDS - BAND    151; K    1; EIG  8.9458483E-02 AU
 DIRECT ENERGY BAND GAP:   5.9269 eV
 TTTTTTTTTTTTTTTTTTTTTTTTTTTTTT PDIG        TELAPSE       42.89 TCPU       41.78
 TTTTTTTTTTTTTTTTTTTTTTTTTTTTTT MOQGAD      TELAPSE       42.91 TCPU       41.79
 TTTTTTTTTTTTTTTTTTTTTTTTTTTTTT SHELLXN     TELAPSE       43.82 TCPU       42.71
 TTTTTTTTTTTTTTTTTTTTTTTTTTTTTT MONMO3      TELAPSE       44.37 TCPU       43.26
 NUMERICALLY INTEGRATED DENSITY    300.0002448061
 TTTTTTTTTTTTTTTTTTTTTTTTTTTTTT NUMDFT      TELAPSE       46.85 TCPU       45.73
 CYC   8 ETOT(AU) -4.263444184336E+03 DETOT -2.16E-05 tst  9.81E-06 PX  5.50E-04
 TTTTTTTTTTTTTTTTTTTTTTTTTTTTTT FDIK        TELAPSE       46.91 TCPU       45.79
 INSULATING STATE
 TOP OF VALENCE BANDS -    BAND    150; K    1; EIG -1.2838436E-01 AU
 BOTTOM OF VIRTUAL BANDS - BAND    151; K    1; EIG  8.9378517E-02 AU
 DIRECT ENERGY BAND GAP:   5.9256 eV
 TTTTTTTTTTTTTTTTTTTTTTTTTTTTTT PDIG        TELAPSE       46.92 TCPU       45.80
 TTTTTTTTTTTTTTTTTTTTTTTTTTTTTT MOQGAD      TELAPSE       46.93 TCPU       45.81
 TTTTTTTTTTTTTTTTTTTTTTTTTTTTTT SHELLXN     TELAPSE       47.85 TCPU       46.73
 TTTTTTTTTTTTTTTTTTTTTTTTTTTTTT MONMO3      TELAPSE       48.40 TCPU       47.27
 NUMERICALLY INTEGRATED DENSITY    300.0002447453
 TTTTTTTTTTTTTTTTTTTTTTTTTTTTTT NUMDFT      TELAPSE       50.84 TCPU       49.72
 CYC   9 ETOT(AU) -4.263444189813E+03 DETOT -5.48E-06 tst  4.93E-06 PX  3.15E-04
 TTTTTTTTTTTTTTTTTTTTTTTTTTTTTT FDIK        TELAPSE       50.90 TCPU       49.77
 INSULATING STATE
 TOP OF VALENCE BANDS -    BAND    150; K    1; EIG -1.2843903E-01 AU
 BOTTOM OF VIRTUAL BANDS - BAND    151; K    1; EIG  8.9322246E-02 AU
 DIRECT ENERGY BAND GAP:   5.9256 eV
 TTTTTTTTTTTTTTTTTTTTTTTTTTTTTT PDIG        TELAPSE       50.91 TCPU       49.79
 TTTTTTTTTTTTTTTTTTTTTTTTTTTTTT MOQGAD      TELAPSE       50.92 TCPU       49.80
 TTTTTTTTTTTTTTTTTTTTTTTTTTTTTT SHELLXN     TELAPSE       51.84 TCPU       50.72
 TTTTTTTTTTTTTTTTTTTTTTTTTTTTTT MONMO3      TELAPSE       52.38 TCPU       51.26
 NUMERICALLY INTEGRATED DENSITY    300.0002447097
 TTTTTTTTTTTTTTTTTTTTTTTTTTTTTT NUMDFT      TELAPSE       54.85 TCPU       53.72
 CYC  10 ETOT(AU) -4.263444191426E+03 DETOT -1.61E-06 tst  2.42E-06 PX  1.82E-04
 TTTTTTTTTTTTTTTTTTTTTTTTTTTTTT FDIK        TELAPSE       54.91 TCPU       53.78
 INSULATING STATE
 TOP OF VALENCE BANDS -    BAND    150; K    1; EIG -1.2848669E-01 AU
 BOTTOM OF VIRTUAL BANDS - BAND    151; K    1; EIG  8.9284256E-02 AU
 DIRECT ENERGY BAND GAP:   5.9259 eV
 TTTTTTTTTTTTTTTTTTTTTTTTTTTTTT PDIG        TELAPSE       54.92 TCPU       53.80
 TTTTTTTTTTTTTTTTTTTTTTTTTTTTTT MOQGAD      TELAPSE       54.94 TCPU       53.81
 TTTTTTTTTTTTTTTTTTTTTTTTTTTTTT SHELLXN     TELAPSE       55.85 TCPU       54.72
 TTTTTTTTTTTTTTTTTTTTTTTTTTTTTT MONMO3      TELAPSE       56.39 TCPU       55.27
 NUMERICALLY INTEGRATED DENSITY    300.0002446882
 TTTTTTTTTTTTTTTTTTTTTTTTTTTTTT NUMDFT      TELAPSE       58.90 TCPU       57.77
 CYC  11 ETOT(AU) -4.263444191893E+03 DETOT -4.67E-07 tst  1.17E-06 PX  9.52E-05
 TTTTTTTTTTTTTTTTTTTTTTTTTTTTTT FDIK        TELAPSE       58.95 TCPU       57.82
 INSULATING STATE
 TOP OF VALENCE BANDS -    BAND    150; K    1; EIG -1.2850657E-01 AU
 BOTTOM OF VIRTUAL BANDS - BAND    151; K    1; EIG  8.9267134E-02 AU
 DIRECT ENERGY BAND GAP:   5.9259 eV
 TTTTTTTTTTTTTTTTTTTTTTTTTTTTTT PDIG        TELAPSE       58.97 TCPU       57.84
 TTTTTTTTTTTTTTTTTTTTTTTTTTTTTT MOQGAD      TELAPSE       58.98 TCPU       57.85
 TTTTTTTTTTTTTTTTTTTTTTTTTTTTTT SHELLXN     TELAPSE       59.90 TCPU       58.76
 TTTTTTTTTTTTTTTTTTTTTTTTTTTTTT MONMO3      TELAPSE       60.44 TCPU       59.30
 NUMERICALLY INTEGRATED DENSITY    300.0002446763
 TTTTTTTTTTTTTTTTTTTTTTTTTTTTTT NUMDFT      TELAPSE       62.90 TCPU       61.76
 CYC  12 ETOT(AU) -4.263444191970E+03 DETOT -7.78E-08 tst  5.73E-07 PX  4.72E-05
 TTTTTTTTTTTTTTTTTTTTTTTTTTTTTT FDIK        TELAPSE       62.96 TCPU       61.81
 INSULATING STATE
 TOP OF VALENCE BANDS -    BAND    150; K    1; EIG -1.2851470E-01 AU
 BOTTOM OF VIRTUAL BANDS - BAND    151; K    1; EIG  8.9259453E-02 AU
 DIRECT ENERGY BAND GAP:   5.9259 eV
 TTTTTTTTTTTTTTTTTTTTTTTTTTTTTT PDIG        TELAPSE       62.97 TCPU       61.83
 TTTTTTTTTTTTTTTTTTTTTTTTTTTTTT MOQGAD      TELAPSE       62.98 TCPU       61.84
 TTTTTTTTTTTTTTTTTTTTTTTTTTTTTT SHELLXN     TELAPSE       63.90 TCPU       62.76
 TTTTTTTTTTTTTTTTTTTTTTTTTTTTTT MONMO3      TELAPSE       64.44 TCPU       63.30
 NUMERICALLY INTEGRATED DENSITY    300.0002446697
 TTTTTTTTTTTTTTTTTTTTTTTTTTTTTT NUMDFT      TELAPSE       66.89 TCPU       65.74
 CYC  13 ETOT(AU) -4.263444191917E+03 DETOT  5.31E-08 tst  2.81E-07 PX  2.75E-05
 TTTTTTTTTTTTTTTTTTTTTTTTTTTTTT FDIK        TELAPSE       66.94 TCPU       65.79
 INSULATING STATE
 TOP OF VALENCE BANDS -    BAND    150; K    1; EIG -1.2851969E-01 AU
 BOTTOM OF VIRTUAL BANDS - BAND    151; K    1; EIG  8.9255061E-02 AU
 DIRECT ENERGY BAND GAP:   5.9260 eV
 TTTTTTTTTTTTTTTTTTTTTTTTTTTTTT PDIG        TELAPSE       66.96 TCPU       65.81
 TTTTTTTTTTTTTTTTTTTTTTTTTTTTTT MOQGAD      TELAPSE       66.97 TCPU       65.82
 TTTTTTTTTTTTTTTTTTTTTTTTTTTTTT SHELLXN     TELAPSE       67.89 TCPU       66.74
 TTTTTTTTTTTTTTTTTTTTTTTTTTTTTT MONMO3      TELAPSE       68.43 TCPU       67.28
 NUMERICALLY INTEGRATED DENSITY    300.0002446658
 TTTTTTTTTTTTTTTTTTTTTTTTTTTTTT NUMDFT      TELAPSE       70.90 TCPU       69.75
 CYC  14 ETOT(AU) -4.263444191858E+03 DETOT  5.94E-08 tst  1.37E-07 PX  1.67E-05
 TTTTTTTTTTTTTTTTTTTTTTTTTTTTTT FDIK        TELAPSE       70.96 TCPU       69.81
 INSULATING STATE
 TOP OF VALENCE BANDS -    BAND    150; K    1; EIG -1.2852265E-01 AU
 BOTTOM OF VIRTUAL BANDS - BAND    151; K    1; EIG  8.9252547E-02 AU
 DIRECT ENERGY BAND GAP:   5.9260 eV
 TTTTTTTTTTTTTTTTTTTTTTTTTTTTTT PDIG        TELAPSE       70.97 TCPU       69.82
 TTTTTTTTTTTTTTTTTTTTTTTTTTTTTT MOQGAD      TELAPSE       70.99 TCPU       69.84
 TTTTTTTTTTTTTTTTTTTTTTTTTTTTTT SHELLXN     TELAPSE       71.90 TCPU       70.75
 TTTTTTTTTTTTTTTTTTTTTTTTTTTTTT MONMO3      TELAPSE       72.45 TCPU       71.29
 NUMERICALLY INTEGRATED DENSITY    300.0002446633
 TTTTTTTTTTTTTTTTTTTTTTTTTTTTTT NUMDFT      TELAPSE       74.88 TCPU       73.73
 CYC  15 ETOT(AU) -4.263444191799E+03 DETOT  5.89E-08 tst  6.72E-08 PX  8.44E-06
 TTTTTTTTTTTTTTTTTTTTTTTTTTTTTT FDIK        TELAPSE       74.94 TCPU       73.79
 INSULATING STATE
 TOP OF VALENCE BANDS -    BAND    150; K    1; EIG -1.2852424E-01 AU
 BOTTOM OF VIRTUAL BANDS - BAND    151; K    1; EIG  8.9251158E-02 AU
 DIRECT ENERGY BAND GAP:   5.9260 eV
 TTTTTTTTTTTTTTTTTTTTTTTTTTTTTT PDIG        TELAPSE       74.95 TCPU       73.80
 TTTTTTTTTTTTTTTTTTTTTTTTTTTTTT MOQGAD      TELAPSE       74.97 TCPU       73.82
 TTTTTTTTTTTTTTTTTTTTTTTTTTTTTT SHELLXN     TELAPSE       75.88 TCPU       74.73
 TTTTTTTTTTTTTTTTTTTTTTTTTTTTTT MONMO3      TELAPSE       76.43 TCPU       75.27
 NUMERICALLY INTEGRATED DENSITY    300.0002446618
 TTTTTTTTTTTTTTTTTTTTTTTTTTTTTT NUMDFT      TELAPSE       78.89 TCPU       77.73
 CYC  16 ETOT(AU) -4.263444191759E+03 DETOT  3.99E-08 tst  3.29E-08 PX  5.07E-06
 TTTTTTTTTTTTTTTTTTTTTTTTTTTTTT FDIK        TELAPSE       78.94 TCPU       77.78
 INSULATING STATE
 TOP OF VALENCE BANDS -    BAND    150; K    1; EIG -1.2852521E-01 AU
 BOTTOM OF VIRTUAL BANDS - BAND    151; K    1; EIG  8.9250330E-02 AU
 DIRECT ENERGY BAND GAP:   5.9260 eV
 TTTTTTTTTTTTTTTTTTTTTTTTTTTTTT PDIG        TELAPSE       78.96 TCPU       77.80
 TTTTTTTTTTTTTTTTTTTTTTTTTTTTTT MOQGAD      TELAPSE       78.97 TCPU       77.81
 TTTTTTTTTTTTTTTTTTTTTTTTTTTTTT SHELLXN     TELAPSE       79.89 TCPU       78.72
 TTTTTTTTTTTTTTTTTTTTTTTTTTTTTT MONMO3      TELAPSE       80.43 TCPU       79.27
 NUMERICALLY INTEGRATED DENSITY    300.0002446609
 TTTTTTTTTTTTTTTTTTTTTTTTTTTTTT NUMDFT      TELAPSE       82.96 TCPU       81.79
 CYC  17 ETOT(AU) -4.263444191730E+03 DETOT  2.95E-08 tst  1.61E-08 PX  2.94E-06
 TTTTTTTTTTTTTTTTTTTTTTTTTTTTTT FDIK        TELAPSE       83.02 TCPU       81.85
 INSULATING STATE
 TOP OF VALENCE BANDS -    BAND    150; K    1; EIG -1.2852581E-01 AU
 BOTTOM OF VIRTUAL BANDS - BAND    151; K    1; EIG  8.9249831E-02 AU
 DIRECT ENERGY BAND GAP:   5.9260 eV
 TTTTTTTTTTTTTTTTTTTTTTTTTTTTTT PDIG        TELAPSE       83.03 TCPU       81.87
 TTTTTTTTTTTTTTTTTTTTTTTTTTTTTT MOQGAD      TELAPSE       83.04 TCPU       81.88
 TTTTTTTTTTTTTTTTTTTTTTTTTTTTTT SHELLXN     TELAPSE       83.96 TCPU       82.79
 TTTTTTTTTTTTTTTTTTTTTTTTTTTTTT MONMO3      TELAPSE       84.50 TCPU       83.33
 NUMERICALLY INTEGRATED DENSITY    300.0002446604
 TTTTTTTTTTTTTTTTTTTTTTTTTTTTTT NUMDFT      TELAPSE       86.92 TCPU       85.75
 CYC  18 ETOT(AU) -4.263444191709E+03 DETOT  2.08E-08 tst  7.90E-09 PX  1.71E-06
 TTTTTTTTTTTTTTTTTTTTTTTTTTTTTT FDIK        TELAPSE       86.99 TCPU       85.82
 INSULATING STATE
 TOP OF VALENCE BANDS -    BAND    150; K    1; EIG -1.2852615E-01 AU
 BOTTOM OF VIRTUAL BANDS - BAND    151; K    1; EIG  8.9249549E-02 AU
 DIRECT ENERGY BAND GAP:   5.9260 eV
 TTTTTTTTTTTTTTTTTTTTTTTTTTTTTT PDIG        TELAPSE       87.00 TCPU       85.83
 TTTTTTTTTTTTTTTTTTTTTTTTTTTTTT MOQGAD      TELAPSE       87.02 TCPU       85.85
 TTTTTTTTTTTTTTTTTTTTTTTTTTTTTT SHELLXN     TELAPSE       87.93 TCPU       86.76
 TTTTTTTTTTTTTTTTTTTTTTTTTTTTTT MONMO3      TELAPSE       88.47 TCPU       87.31
 NUMERICALLY INTEGRATED DENSITY    300.0002446600
 TTTTTTTTTTTTTTTTTTTTTTTTTTTTTT NUMDFT      TELAPSE       90.90 TCPU       89.73
 CYC  19 ETOT(AU) -4.263444191695E+03 DETOT  1.34E-08 tst  3.87E-09 PX  1.07E-06
 TTTTTTTTTTTTTTTTTTTTTTTTTTTTTT FDIK        TELAPSE       90.95 TCPU       89.77
 INSULATING STATE
 TOP OF VALENCE BANDS -    BAND    150; K    1; EIG -1.2852636E-01 AU
 BOTTOM OF VIRTUAL BANDS - BAND    151; K    1; EIG  8.9249375E-02 AU
 DIRECT ENERGY BAND GAP:   5.9260 eV
 TTTTTTTTTTTTTTTTTTTTTTTTTTTTTT PDIG        TELAPSE       90.96 TCPU       89.79
 TTTTTTTTTTTTTTTTTTTTTTTTTTTTTT MOQGAD      TELAPSE       90.97 TCPU       89.80
 TTTTTTTTTTTTTTTTTTTTTTTTTTTTTT SHELLXN     TELAPSE       91.89 TCPU       90.72
 TTTTTTTTTTTTTTTTTTTTTTTTTTTTTT MONMO3      TELAPSE       92.43 TCPU       91.26
 NUMERICALLY INTEGRATED DENSITY    300.0002446598
 TTTTTTTTTTTTTTTTTTTTTTTTTTTTTT NUMDFT      TELAPSE       94.90 TCPU       93.73
 CYC  20 ETOT(AU) -4.263444191686E+03 DETOT  9.18E-09 tst  1.90E-09 PX  7.52E-07
 TTTTTTTTTTTTTTTTTTTTTTTTTTTTTT FDIK        TELAPSE       94.95 TCPU       93.77
 INSULATING STATE
 TOP OF VALENCE BANDS -    BAND    150; K    1; EIG -1.2852650E-01 AU
 BOTTOM OF VIRTUAL BANDS - BAND    151; K    1; EIG  8.9249261E-02 AU
 DIRECT ENERGY BAND GAP:   5.9260 eV
 TTTTTTTTTTTTTTTTTTTTTTTTTTTTTT PDIG        TELAPSE       94.97 TCPU       93.79
 TTTTTTTTTTTTTTTTTTTTTTTTTTTTTT MOQGAD      TELAPSE       94.98 TCPU       93.80
 TTTTTTTTTTTTTTTTTTTTTTTTTTTTTT SHELLXN     TELAPSE       95.90 TCPU       94.72
 TTTTTTTTTTTTTTTTTTTTTTTTTTTTTT MONMO3      TELAPSE       96.44 TCPU       95.26
 NUMERICALLY INTEGRATED DENSITY    300.0002446597
 TTTTTTTTTTTTTTTTTTTTTTTTTTTTTT NUMDFT      TELAPSE       98.91 TCPU       97.72
 CYC  21 ETOT(AU) -4.263444191680E+03 DETOT  5.73E-09 tst  9.28E-10 PX  3.56E-07
 TTTTTTTTTTTTTTTTTTTTTTTTTTTTTT FDIK        TELAPSE       98.96 TCPU       97.77
 INSULATING STATE
 TOP OF VALENCE BANDS -    BAND    150; K    1; EIG -1.2852658E-01 AU
 BOTTOM OF VIRTUAL BANDS - BAND    151; K    1; EIG  8.9249196E-02 AU
 DIRECT ENERGY BAND GAP:   5.9260 eV
 TTTTTTTTTTTTTTTTTTTTTTTTTTTTTT PDIG        TELAPSE       98.97 TCPU       97.79
 TTTTTTTTTTTTTTTTTTTTTTTTTTTTTT MOQGAD      TELAPSE       98.99 TCPU       97.80
 TTTTTTTTTTTTTTTTTTTTTTTTTTTTTT SHELLXN     TELAPSE       99.91 TCPU       98.72
 TTTTTTTTTTTTTTTTTTTTTTTTTTTTTT MONMO3      TELAPSE      100.45 TCPU       99.26
 NUMERICALLY INTEGRATED DENSITY    300.0002446596
 TTTTTTTTTTTTTTTTTTTTTTTTTTTTTT NUMDFT      TELAPSE      102.92 TCPU      101.73
 CYC  22 ETOT(AU) -4.263444191676E+03 DETOT  4.40E-09 tst  4.55E-10 PX  2.26E-07
 TTTTTTTTTTTTTTTTTTTTTTTTTTTTTT FDIK        TELAPSE      102.97 TCPU      101.77
 INSULATING STATE
 TOP OF VALENCE BANDS -    BAND    150; K    1; EIG -1.2852663E-01 AU
 BOTTOM OF VIRTUAL BANDS - BAND    151; K    1; EIG  8.9249150E-02 AU
 DIRECT ENERGY BAND GAP:   5.9260 eV
 TTTTTTTTTTTTTTTTTTTTTTTTTTTTTT PDIG        TELAPSE      102.98 TCPU      101.79
 TTTTTTTTTTTTTTTTTTTTTTTTTTTTTT MOQGAD      TELAPSE      102.99 TCPU      101.80
 TTTTTTTTTTTTTTTTTTTTTTTTTTTTTT SHELLXN     TELAPSE      103.91 TCPU      102.71
 TTTTTTTTTTTTTTTTTTTTTTTTTTTTTT MONMO3      TELAPSE      104.45 TCPU      103.26
 NUMERICALLY INTEGRATED DENSITY    300.0002446595
 TTTTTTTTTTTTTTTTTTTTTTTTTTTTTT NUMDFT      TELAPSE      106.90 TCPU      105.70
 CYC  23 ETOT(AU) -4.263444191673E+03 DETOT  3.14E-09 tst  2.23E-10 PX  1.67E-07
 TTTTTTTTTTTTTTTTTTTTTTTTTTTTTT FDIK        TELAPSE      106.95 TCPU      105.75
 INSULATING STATE
 TOP OF VALENCE BANDS -    BAND    150; K    1; EIG -1.2852668E-01 AU
 BOTTOM OF VIRTUAL BANDS - BAND    151; K    1; EIG  8.9249114E-02 AU
 DIRECT ENERGY BAND GAP:   5.9260 eV
 TTTTTTTTTTTTTTTTTTTTTTTTTTTTTT PDIG        TELAPSE      106.96 TCPU      105.77
 TTTTTTTTTTTTTTTTTTTTTTTTTTTTTT MOQGAD      TELAPSE      106.98 TCPU      105.78
 TTTTTTTTTTTTTTTTTTTTTTTTTTTTTT SHELLXN     TELAPSE      107.90 TCPU      106.70
 TTTTTTTTTTTTTTTTTTTTTTTTTTTTTT MONMO3      TELAPSE      108.44 TCPU      107.24
 NUMERICALLY INTEGRATED DENSITY    300.0002446595
 TTTTTTTTTTTTTTTTTTTTTTTTTTTTTT NUMDFT      TELAPSE      110.85 TCPU      109.65
 CYC  24 ETOT(AU) -4.263444191671E+03 DETOT  1.84E-09 tst  1.09E-10 PX  1.05E-07
 TTTTTTTTTTTTTTTTTTTTTTTTTTTTTT FDIK        TELAPSE      110.90 TCPU      109.69
 INSULATING STATE
 TOP OF VALENCE BANDS -    BAND    150; K    1; EIG -1.2852670E-01 AU
 BOTTOM OF VIRTUAL BANDS - BAND    151; K    1; EIG  8.9249100E-02 AU
 DIRECT ENERGY BAND GAP:   5.9260 eV
 TTTTTTTTTTTTTTTTTTTTTTTTTTTTTT PDIG        TELAPSE      110.91 TCPU      109.71
 TTTTTTTTTTTTTTTTTTTTTTTTTTTTTT MOQGAD      TELAPSE      110.92 TCPU      109.72
 TTTTTTTTTTTTTTTTTTTTTTTTTTTTTT SHELLXN     TELAPSE      111.84 TCPU      110.63
 TTTTTTTTTTTTTTTTTTTTTTTTTTTTTT MONMO3      TELAPSE      112.38 TCPU      111.18
 NUMERICALLY INTEGRATED DENSITY    300.0002446595
 TTTTTTTTTTTTTTTTTTTTTTTTTTTTTT NUMDFT      TELAPSE      114.83 TCPU      113.63
 CYC  25 ETOT(AU) -4.263444191670E+03 DETOT  1.28E-09 tst  5.35E-11 PX  7.28E-08
 TTTTTTTTTTTTTTTTTTTTTTTTTTTTTT FDIK        TELAPSE      114.88 TCPU      113.68
 INSULATING STATE
 TOP OF VALENCE BANDS -    BAND    150; K    1; EIG -1.2852672E-01 AU
 BOTTOM OF VIRTUAL BANDS - BAND    151; K    1; EIG  8.9249085E-02 AU
 DIRECT ENERGY BAND GAP:   5.9260 eV
 TTTTTTTTTTTTTTTTTTTTTTTTTTTTTT PDIG        TELAPSE      114.90 TCPU      113.69
 TTTTTTTTTTTTTTTTTTTTTTTTTTTTTT MOQGAD      TELAPSE      114.91 TCPU      113.70
 TTTTTTTTTTTTTTTTTTTTTTTTTTTTTT SHELLXN     TELAPSE      115.82 TCPU      114.62
 TTTTTTTTTTTTTTTTTTTTTTTTTTTTTT MONMO3      TELAPSE      116.37 TCPU      115.16
 NUMERICALLY INTEGRATED DENSITY    300.0002446595
 TTTTTTTTTTTTTTTTTTTTTTTTTTTTTT NUMDFT      TELAPSE      118.84 TCPU      117.63
 CYC  26 ETOT(AU) -4.263444191669E+03 DETOT  9.64E-10 tst  2.62E-11 PX  4.90E-08
 TTTTTTTTTTTTTTTTTTTTTTTTTTTTTT FDIK        TELAPSE      118.89 TCPU      117.68
 INSULATING STATE
 TOP OF VALENCE BANDS -    BAND    150; K    1; EIG -1.2852673E-01 AU
 BOTTOM OF VIRTUAL BANDS - BAND    151; K    1; EIG  8.9249076E-02 AU
 DIRECT ENERGY BAND GAP:   5.9260 eV
 TTTTTTTTTTTTTTTTTTTTTTTTTTTTTT PDIG        TELAPSE      118.91 TCPU      117.70
 TTTTTTTTTTTTTTTTTTTTTTTTTTTTTT MOQGAD      TELAPSE      118.92 TCPU      117.71
 TTTTTTTTTTTTTTTTTTTTTTTTTTTTTT SHELLXN     TELAPSE      119.84 TCPU      118.62
 ::: PSEUDO TOTAL   ENERGY                        -3.8850267400236E+03
 ::: VIRIAL COEFFICIENT                            1.0442213736921E+00
 TTTTTTTTTTTTTTTTTTTTTTTTTTTTTT MONMO3      TELAPSE      120.38 TCPU      119.17
 NUMERICALLY INTEGRATED DENSITY    300.0002446594
 TTTTTTTTTTTTTTTTTTTTTTTTTTTTTT NUMDFT      TELAPSE      122.89 TCPU      121.67
 CYC  27 ETOT(AU) -4.263444191668E+03 DETOT  6.00E-10 tst  1.28E-11 PX  4.90E-08

 == SCF ENDED - CONVERGENCE ON ENERGY      E(AU) -4.2634441916682E+03 CYCLES  27


 ENERGY EXPRESSION=HARTREE+FOCK EXCH*0.00000+(PBE        EXCH)*1.00000+PBE        CORR


 TOTAL ENERGY(DFT)(AU)( 27) -4.2634441916682E+03 DE 6.0E-10 tester 1.3E-11
 TTTTTTTTTTTTTTTTTTTTTTTTTTTTTT EDFT        TELAPSE      122.90 TCPU      121.68

 VOLUME OF PRIMITIVE CELL (A^3)=         264.812215564275
 *******************************************************************************
 LATTICE PARAMETERS (ANGSTROMS AND DEGREES) - BOHR = 0.5291772083 ANGSTROM
 PRIMITIVE CELL - CENTRING CODE 1/1 VOLUME=   264.812216 - DENSITY  3.836 g/cm^3
         A              B              C           ALPHA      BETA       GAMMA 
     4.82860168     4.82860168    13.11488905    90.000000  90.000000 120.000000
 *******************************************************************************
 ATOMS IN THE ASYMMETRIC UNIT    9 - ATOMS IN THE UNIT CELL:   30
     ATOM                 X/A                 Y/B                 Z/C    
 *******************************************************************************
      1 T  13 AL    3.333333333333E-01 -3.333333333333E-01  1.955179055198E-02
      2 T  13 AL    0.000000000000E+00 -1.946749008335E-16  1.471148761147E-01
      3 F  13 AL   -3.333333333333E-01  3.333333333333E-01 -1.955179055198E-02
      4 F  13 AL   -1.475192334009E-16  1.574168280393E-16 -1.471148761147E-01
      5 T   8 O    -3.617448850731E-01 -3.333333333333E-01 -8.333333333333E-02
      6 F   8 O     3.333333333333E-01 -2.841155173978E-02 -8.333333333333E-02
      7 F   8 O     2.841155173978E-02  3.617448850731E-01 -8.333333333333E-02
      8 F   8 O     3.617448850731E-01  3.333333333333E-01  8.333333333333E-02
      9 F   8 O    -3.333333333333E-01  2.841155173978E-02  8.333333333333E-02
     10 F   8 O    -2.841155173978E-02 -3.617448850731E-01  8.333333333333E-02
     11 T  13 AL    3.333333333333E-01 -3.333333333333E-01 -4.804482094480E-01
     12 F  13 AL   -3.333333333333E-01  3.333333333333E-01  4.804482094480E-01
     13 T   8 O     3.049217815935E-01 -2.775557561563E-17  2.500000000000E-01
     14 T   8 O    -2.841155173978E-02  3.333333333333E-01 -4.166666666667E-01
     15 T  13 AL    3.333333333333E-01 -3.333333333333E-01 -1.862184572186E-01
     16 F   8 O    -1.110223024625E-16  3.049217815936E-01  2.500000000000E-01
     17 F   8 O    -3.333333333333E-01 -3.617448850731E-01 -4.166666666667E-01
     18 T  13 AL   -3.333333333333E-01  3.333333333333E-01 -3.137815427814E-01
     19 F   8 O    -3.049217815935E-01 -3.049217815936E-01  2.500000000000E-01
     20 F   8 O     3.617448850731E-01  2.841155173978E-02 -4.166666666667E-01
     21 F  13 AL    3.333333333333E-01 -3.333333333333E-01  3.137815427814E-01
     22 F   8 O     2.841155173978E-02 -3.333333333333E-01  4.166666666667E-01
     23 F   8 O    -3.049217815936E-01  1.665334536938E-16 -2.500000000000E-01
     24 T  13 AL   -5.309922868832E-17  2.220446049250E-16 -3.528851238853E-01
     25 F   8 O     3.333333333333E-01  3.617448850731E-01  4.166666666667E-01
     26 F   8 O     0.000000000000E+00 -3.049217815936E-01 -2.500000000000E-01
     27 F  13 AL   -1.061984573766E-16 -5.309922868832E-17  3.528851238853E-01
     28 F   8 O    -3.617448850731E-01 -2.841155173978E-02  4.166666666667E-01
     29 F   8 O     3.049217815935E-01  3.049217815936E-01 -2.500000000000E-01
     30 F  13 AL   -3.333333333333E-01  3.333333333333E-01  1.862184572186E-01

 T = ATOM BELONGING TO THE ASYMMETRIC UNIT
 TTTTTTTTTTTTTTTTTTTTTTTTTTTTTT gordsh1     TELAPSE      122.92 TCPU      121.70

 MATRIX SIZE: P(G)  330432, F(G)  165702, P(G) IRR   29704, F(G) IRR   29704
 MAX G-VECTOR INDEX FOR 1- AND 2-ELECTRON INTEGRALS  63

 TTTTTTTTTTTTTTTTTTTTTTTTTTTTTT INPUT       TELAPSE      122.92 TCPU      121.71

 NEIGHBORS OF THE NON-EQUIVALENT ATOMS

 N = NUMBER OF NEIGHBORS AT DISTANCE R
    ATOM  N     R/ANG      R/AU   NEIGHBORS (ATOM LABELS AND CELL INDICES)
   1 AL   3     1.8788     3.5504    8 O   -1-1 0    9 O    0 0 0   10 O   -1 0 0
   1 AL   3     1.9971     3.7740    5 O    0 0 0    6 O   -1 0 0    7 O   -1-1 0
   1 AL   1     2.6987     5.0997   15 AL  -1 0 0
   1 AL   3     2.8346     5.3566    3 AL   0 0 0    3 AL  -1 0 0    3 AL   0 1 0
   1 AL   3     3.2513     6.1440    2 AL   0 0 0    2 AL  -1-1 0    2 AL  -1 0 0
   1 AL   3     3.2618     6.1639    8 O   -1 0 0    9 O   -1-1 0   10 O    0 0 0

   2 AL   3     1.8788     3.5504    8 O    0 0 0    9 O    0 0 0   10 O    0 0 0
   2 AL   3     1.9971     3.7740   13 O    0 0 0   16 O    0 0 0   19 O    0 0 0
   2 AL   1     2.6987     5.0997   27 AL   0 0 0
   2 AL   3     2.8346     5.3566   30 AL   0 0 0   30 AL   1 0 0   30 AL   0-1 0
   2 AL   3     3.2513     6.1440    1 AL   0 0 0    1 AL   1 1 0    1 AL   1 0 0
   2 AL   3     3.2618     6.1639    8 O   -1-1 0    9 O    1 0 0   10 O    0 1 0

   5 O    2     1.8788     3.5504    3 AL   0 0 0    4 AL   0 0 0
   5 O    2     1.9971     3.7740    1 AL   0 0 0   15 AL  -1 0 0
   5 O    2     2.5502     4.8191    6 O   -1 0 0    7 O   -1-1 0
   5 O    2     2.6461     5.0005    8 O   -1-1 0   23 O    0 0 0
   5 O    4     2.7583     5.2124    9 O    0 0 0   10 O    0 0 0   26 O    0 0 0
                                    29 O   -1-1 0
   5 O    4     2.9139     5.5064    6 O    0 0 0    6 O   -1-1 0    7 O    0 0 0
                                     7 O    0-1 0

  11 AL   3     1.8788     3.5504   14 O    0-1 0   17 O    1 0 0   20 O    0 0 0
  11 AL   3     1.9971     3.7740   22 O    0 0-1   25 O    0-1-1   28 O    1 0-1
  11 AL   1     2.6987     5.0997   21 AL   0 0-1
  11 AL   3     2.8346     5.3566   12 AL   1 0-1   12 AL   0-1-1   12 AL   1-1-1
  11 AL   3     3.2513     6.1440   24 AL   0 0 0   24 AL   1 0 0   24 AL   0-1 0
  11 AL   3     3.2618     6.1639   14 O    1 0 0   17 O    0 0 0   20 O    0-1 0

  13 O    2     1.8788     3.5504   21 AL   0 0 0   30 AL   1 0 0
  13 O    2     1.9971     3.7740    2 AL   0 0 0   27 AL   0 0 0
  13 O    2     2.5502     4.8191   16 O    0 0 0   19 O    0 0 0
  13 O    2     2.6461     5.0005    8 O    0 0 0   22 O    0 0 0
  13 O    4     2.7583     5.2124    9 O    1 0 0   10 O    0 0 0   25 O    0 0 0
                                    28 O    1 0 0
  13 O    4     2.9139     5.5064   16 O    1 0 0   16 O    0-1 0   19 O    1 1 0
                                    19 O    1 0 0

  14 O    2     1.8788     3.5504   11 AL   0 1 0   24 AL   0 0 0
  14 O    2     1.9971     3.7740   12 AL   0 0-1   18 AL   0 0 0
  14 O    2     2.5502     4.8191   17 O    0 1 0   20 O   -1 0 0
  14 O    2     2.6461     5.0005   22 O    0 1-1   23 O    0 0 0
  14 O    4     2.7583     5.2124   25 O    0 0-1   26 O    0 1 0   28 O    0 0-1
                                    29 O    0 0 0
  14 O    4     2.9139     5.5064   17 O    0 0 0   17 O    1 1 0   20 O    0 0 0
                                    20 O    0 1 0

  15 AL   3     1.8788     3.5504   23 O    1 0 0   26 O    0 0 0   29 O    0-1 0
  15 AL   3     1.9971     3.7740    5 O    1 0 0    6 O    0 0 0    7 O    0-1 0
  15 AL   1     2.6987     5.0997    1 AL   1 0 0
  15 AL   3     2.8346     5.3566    4 AL   0 0 0    4 AL   1 0 0    4 AL   0-1 0
  15 AL   3     3.2513     6.1440   18 AL   1 0 0   18 AL   0-1 0   18 AL   1-1 0
  15 AL   3     3.2618     6.1639   23 O    0-1 0   26 O    1 0 0   29 O    0 0 0

  18 AL   3     1.8788     3.5504   23 O    0 0 0   26 O    0 1 0   29 O   -1 0 0
  18 AL   3     1.9971     3.7740   14 O    0 0 0   17 O    0 1 0   20 O   -1 0 0
  18 AL   1     2.6987     5.0997   12 AL   0 0-1
  18 AL   3     2.8346     5.3566   24 AL   0 0 0   24 AL  -1 0 0   24 AL   0 1 0
  18 AL   3     3.2513     6.1440   15 AL  -1 0 0   15 AL   0 1 0   15 AL  -1 1 0
  18 AL   3     3.2618     6.1639   23 O    0 1 0   26 O   -1 0 0   29 O    0 0 0

  24 AL   3     1.8788     3.5504   14 O    0 0 0   17 O    0 0 0   20 O    0 0 0
  24 AL   3     1.9971     3.7740   23 O    0 0 0   26 O    0 0 0   29 O    0 0 0
  24 AL   1     2.6987     5.0997    4 AL   0 0 0
  24 AL   3     2.8346     5.3566   18 AL   0 0 0   18 AL   1 0 0   18 AL   0-1 0
  24 AL   3     3.2513     6.1440   11 AL   0 0 0   11 AL  -1 0 0   11 AL   0 1 0
  24 AL   3     3.2618     6.1639   14 O    0-1 0   17 O    1 1 0   20 O   -1 0 0


 SYMMETRY ALLOWED ELASTIC DISTORTION 1
  0.5773503  0.0000000  0.0000000
  0.0000000  0.5773503  0.0000000
  0.0000000  0.0000000  0.5773503

 SYMMETRY ALLOWED ELASTIC DISTORTION 2
  0.4082483  0.0000000  0.0000000
  0.0000000  0.4082483  0.0000000
  0.0000000  0.0000000 -0.8164966

 ACTIVE SYMMETRY ALLOWED ELASTIC DISTORTION 1
  0.4082483  0.0000000  0.0000000
  0.0000000  0.4082483  0.0000000
  0.0000000  0.0000000 -0.8164966

 SYMMETRY ALLOWED INTERNAL DEGREE(S) OF FREEDOM:  15
 TTTTTTTTTTTTTTTTTTTTTTTTTTTTTT SYMM        TELAPSE      122.96 TCPU      121.74
 TTTTTTTTTTTTTTTTTTTTTTTTTTTTTT INT_SCREEN  TELAPSE      122.97 TCPU      121.75

 *******************************************************************************
 * CELL DEFORMATION
 *******************************************************************************

    ELASTIC STRAIN MATRIX (ADIMENSIONAL)

    1   -0.0101017008    0.0000000000    0.0000000000
    2    0.0000000000   -0.0101017008    0.0000000000
    3    0.0000000000    0.0000000000   -0.0101017008

 LATTICE PARAMETERS (ANGSTROMS AND DEGREES) OF
 (1) ORIGINAL PRIMITIVE CELL
 (2) ORIGINAL CRYSTALLOGRAPHIC CELL
 (3) DEFORMED PRIMITIVE CELL
 (4) DEFORMED CRYSTALLOGRAPHIC CELL

            A           B           C        ALPHA       BETA        GAMMA         VOL
 (2)    4.828602    4.828602   13.114889   90.000000   90.000000  120.000000  264.812216
 (4)    4.779825    4.779825   12.982406   90.000000   90.000000  120.000000  256.867849

 * CELL DEFORMATION COMPLETE - NO. OF SYMMOPS   6
 *******************************************************************************
 LATTICE PARAMETERS (ANGSTROMS AND DEGREES) - BOHR = 0.5291772083 ANGSTROM
 PRIMITIVE CELL - CENTRING CODE 1/1 VOLUME=   256.867849 - DENSITY  3.954 g/cm^3
         A              B              C           ALPHA      BETA       GAMMA 
     4.77982459     4.77982459    12.98240637    90.000000  90.000000 120.000000
 *******************************************************************************
 ATOMS IN THE ASYMMETRIC UNIT    9 - ATOMS IN THE UNIT CELL:   30
     ATOM                 X/A                 Y/B                 Z/C    
 *******************************************************************************
      1 T  13 AL    3.333333333333E-01 -3.333333333333E-01  1.955179055198E-02
      2 T  13 AL    0.000000000000E+00 -1.946749008335E-16  1.471148761147E-01
      3 F  13 AL   -3.333333333333E-01  3.333333333333E-01 -1.955179055198E-02
      4 F  13 AL   -1.475192334009E-16  1.574168280393E-16 -1.471148761147E-01
      5 T   8 O    -3.617448850731E-01 -3.333333333333E-01 -8.333333333333E-02
      6 F   8 O     3.333333333333E-01 -2.841155173978E-02 -8.333333333333E-02
      7 F   8 O     2.841155173978E-02  3.617448850731E-01 -8.333333333333E-02
      8 F   8 O     3.617448850731E-01  3.333333333333E-01  8.333333333333E-02
      9 F   8 O    -3.333333333333E-01  2.841155173978E-02  8.333333333333E-02
     10 F   8 O    -2.841155173978E-02 -3.617448850731E-01  8.333333333333E-02
     11 T  13 AL    3.333333333333E-01 -3.333333333333E-01 -4.804482094480E-01
     12 F  13 AL   -3.333333333333E-01  3.333333333333E-01  4.804482094480E-01
     13 T   8 O     3.049217815935E-01 -2.775557561563E-17  2.500000000000E-01
     14 T   8 O    -2.841155173978E-02  3.333333333333E-01 -4.166666666667E-01
     15 T  13 AL    3.333333333333E-01 -3.333333333333E-01 -1.862184572186E-01
     16 F   8 O    -1.110223024625E-16  3.049217815936E-01  2.500000000000E-01
     17 F   8 O    -3.333333333333E-01 -3.617448850731E-01 -4.166666666667E-01
     18 T  13 AL   -3.333333333333E-01  3.333333333333E-01 -3.137815427814E-01
     19 F   8 O    -3.049217815935E-01 -3.049217815936E-01  2.500000000000E-01
     20 F   8 O     3.617448850731E-01  2.841155173978E-02 -4.166666666667E-01
     21 F  13 AL    3.333333333333E-01 -3.333333333333E-01  3.137815427814E-01
     22 F   8 O     2.841155173978E-02 -3.333333333333E-01  4.166666666667E-01
     23 F   8 O    -3.049217815936E-01  1.665334536938E-16 -2.500000000000E-01
     24 T  13 AL   -5.309922868832E-17  2.220446049250E-16 -3.528851238853E-01
     25 F   8 O     3.333333333333E-01  3.617448850731E-01  4.166666666667E-01
     26 F   8 O     0.000000000000E+00 -3.049217815936E-01 -2.500000000000E-01
     27 F  13 AL   -1.061984573766E-16 -5.309922868832E-17  3.528851238853E-01
     28 F   8 O    -3.617448850731E-01 -2.841155173978E-02  4.166666666667E-01
     29 F   8 O     3.049217815935E-01  3.049217815936E-01 -2.500000000000E-01
     30 F  13 AL   -3.333333333333E-01  3.333333333333E-01  1.862184572186E-01

 T = ATOM BELONGING TO THE ASYMMETRIC UNIT
 INFORMATION **** CVOLOPT **** CONSTANT VOLUME OPTIMIZATION

 SYMMETRY ALLOWED ELASTIC DISTORTION 1
  0.5773503  0.0000000  0.0000000
  0.0000000  0.5773503  0.0000000
  0.0000000  0.0000000  0.5773503

 SYMMETRY ALLOWED ELASTIC DISTORTION 2
  0.4082483  0.0000000  0.0000000
  0.0000000  0.4082483  0.0000000
  0.0000000  0.0000000 -0.8164966

 ACTIVE SYMMETRY ALLOWED ELASTIC DISTORTION 1
  0.4082483  0.0000000  0.0000000
  0.0000000  0.4082483  0.0000000
  0.0000000  0.0000000 -0.8164966

 SYMMETRY ALLOWED INTERNAL DEGREE(S) OF FREEDOM:  15

 *******************************************************************************
 *                             OPTIMIZATION STARTS                             *
 *******************************************************************************
 RECLASIFICATION OF INDICES FOR INTEGRAL CALC ACCORDING TO DIFFERENT CRITERIA:
           FIXDELTE                  FIXDELTX              FIXDELTN
           0.0000000                0.0000000              *****
 DEFAULT MAX NUM OF POINTS  100
 *******************************************************************************

 *******************************************************************************
 COORDINATE AND CELL OPTIMIZATION - POINT    1
 INFORMATION **** EXCBUF **** EXCH. BIPO BUFFER: WORDS USED =           0

 DFT PARAMETERS

     ATOM       ELECTRONS   NET CHARGE   R(ANGSTROM)
   1  13  AL     13.0000      0.0000     1.43000000
   5   8  O       8.0000      0.0000     0.74000000

 SIZE OF GRID=     107388
 TTTTTTTTTTTTTTTTTTTTTTTTTTTTTT MAKE_GRID2  TELAPSE      136.14 TCPU      134.90
 BECKE WEIGHT FUNCTION
 RADSAFE =     2.00
 TOLERANCES - DENSITY:10**- 6; POTENTIAL:10**- 9; GRID WGT:10**-14

 RADIAL INTEGRATION  - INTERVALS (POINTS,UPPER LIMIT):            1( 75,  4.0*R)

 ANGULAR INTEGRATION - INTERVALS (ACCURACY LEVEL [N. POINTS] UPPER LIMIT):
  1(  4[  86]   0.2)  2(  8[ 194]   0.5)  3( 12[ 350]   0.9)  4( 16[ 974]   3.5)
[...]
   490.81   4.7966   0.63259E-05   4.7966   0.63259E-05    13.0148   0.75784E-05
   502.83   4.7969   0.63926E-05   4.7969   0.63926E-05    13.0160   0.76497E-05
   514.85   4.7973   0.64563E-05   4.7973   0.64563E-05    13.0172   0.77174E-05
   526.87   4.7977   0.65173E-05   4.7977   0.65173E-05    13.0184   0.77817E-05
   538.89   4.7980   0.65757E-05   4.7980   0.65757E-05    13.0196   0.78428E-05
   550.91   4.7984   0.66319E-05   4.7984   0.66319E-05    13.0209   0.79009E-05
   562.93   4.7988   0.66859E-05   4.7988   0.66859E-05    13.0221   0.79562E-05
   574.95   4.7992   0.67378E-05   4.7992   0.67378E-05    13.0234   0.80090E-05
   586.97   4.7996   0.67878E-05   4.7996   0.67878E-05    13.0246   0.80594E-05
   598.99   4.8000   0.68360E-05   4.8000   0.68360E-05    13.0259   0.81075E-05
   611.01   4.8004   0.68826E-05   4.8004   0.68826E-05    13.0272   0.81536E-05
   623.03   4.8008   0.69277E-05   4.8008   0.69277E-05    13.0284   0.81977E-05
   635.05   4.8012   0.69713E-05   4.8012   0.69713E-05    13.0297   0.82400E-05
   647.07   4.8016   0.70135E-05   4.8016   0.70135E-05    13.0310   0.82805E-05
   659.09   4.8020   0.70545E-05   4.8020   0.70545E-05    13.0323   0.83195E-05
   671.11   4.8024   0.70943E-05   4.8024   0.70943E-05    13.0336   0.83570E-05
   683.13   4.8028   0.71329E-05   4.8028   0.71329E-05    13.0349   0.83931E-05
   695.15   4.8032   0.71705E-05   4.8032   0.71705E-05    13.0362   0.84278E-05
   707.17   4.8036   0.72071E-05   4.8036   0.72071E-05    13.0376   0.84613E-05
   719.19   4.8041   0.72428E-05   4.8041   0.72428E-05    13.0389   0.84936E-05
   731.21   4.8045   0.72776E-05   4.8045   0.72776E-05    13.0402   0.85249E-05
   743.23   4.8049   0.73115E-05   4.8049   0.73115E-05    13.0416   0.85551E-05
   755.25   4.8053   0.73447E-05   4.8053   0.73447E-05    13.0429   0.85843E-05
   767.27   4.8057   0.73772E-05   4.8057   0.73772E-05    13.0443   0.86127E-05
   779.29   4.8062   0.74090E-05   4.8062   0.74090E-05    13.0456   0.86402E-05
   791.31   4.8066   0.74401E-05   4.8066   0.74401E-05    13.0470   0.86669E-05
   803.33   4.8070   0.74706E-05   4.8070   0.74706E-05    13.0483   0.86929E-05
   815.35   4.8075   0.75005E-05   4.8075   0.75005E-05    13.0497   0.87181E-05
   827.37   4.8079   0.75299E-05   4.8079   0.75299E-05    13.0511   0.87427E-05
   839.39   4.8083   0.75588E-05   4.8083   0.75588E-05    13.0524   0.87666E-05
   851.41   4.8088   0.75871E-05   4.8088   0.75871E-05    13.0538   0.87899E-05
   863.43   4.8092   0.76150E-05   4.8092   0.76150E-05    13.0552   0.88127E-05
   875.45   4.8096   0.76424E-05   4.8096   0.76424E-05    13.0566   0.88349E-05
   887.47   4.8101   0.76694E-05   4.8101   0.76694E-05    13.0580   0.88566E-05
   899.49   4.8105   0.76961E-05   4.8105   0.76961E-05    13.0594   0.88779E-05
   911.52   4.8110   0.77223E-05   4.8110   0.77223E-05    13.0608   0.88987E-05
   923.54   4.8114   0.77482E-05   4.8114   0.77482E-05    13.0622   0.89191E-05
   935.56   4.8119   0.77738E-05   4.8119   0.77738E-05    13.0636   0.89391E-05
   947.58   4.8123   0.77991E-05   4.8123   0.77991E-05    13.0650   0.89588E-05
   959.60   4.8128   0.78240E-05   4.8128   0.78240E-05    13.0664   0.89781E-05
   971.62   4.8132   0.78487E-05   4.8132   0.78487E-05    13.0678   0.89970E-05
   983.64   4.8137   0.78730E-05   4.8137   0.78730E-05    13.0692   0.90157E-05
   995.66   4.8141   0.78971E-05   4.8141   0.78971E-05    13.0706   0.90340E-05
  1007.68   4.8146   0.79210E-05   4.8146   0.79210E-05    13.0720   0.90521E-05
  1019.70   4.8151   0.79446E-05   4.8151   0.79446E-05    13.0735   0.90699E-05
  1031.72   4.8155   0.79680E-05   4.8155   0.79680E-05    13.0749   0.90874E-05
  1043.74   4.8160   0.79912E-05   4.8160   0.79912E-05    13.0763   0.91048E-05
  1055.76   4.8164   0.80142E-05   4.8164   0.80142E-05    13.0778   0.91219E-05
  1067.78   4.8169   0.80370E-05   4.8169   0.80370E-05    13.0792   0.91388E-05
  1079.80   4.8174   0.80596E-05   4.8174   0.80596E-05    13.0806   0.91556E-05
  1091.82   4.8178   0.80820E-05   4.8178   0.80820E-05    13.0821   0.91721E-05
  1103.84   4.8183   0.81043E-05   4.8183   0.81043E-05    13.0835   0.91885E-05
  1115.86   4.8188   0.81263E-05   4.8188   0.81263E-05    13.0850   0.92047E-05
  1127.88   4.8193   0.81483E-05   4.8193   0.81483E-05    13.0864   0.92208E-05
  1139.90   4.8197   0.81701E-05   4.8197   0.81701E-05    13.0879   0.92367E-05
  1151.92   4.8202   0.81917E-05   4.8202   0.81917E-05    13.0893   0.92526E-05
  1163.94   4.8207   0.82133E-05   4.8207   0.82133E-05    13.0908   0.92683E-05
  1175.96   4.8212   0.82347E-05   4.8212   0.82347E-05    13.0922   0.92839E-05
  1187.98   4.8216   0.82557E-05   4.8216   0.82557E-05    13.0937   0.92991E-05
  1200.00   4.8221   0.82549E-05   4.8221   0.82549E-05    13.0952   0.92980E-05

 *******************************************************************************
 THERMAL PROPERTIES FROM HELMHOLTZ FREE ENERGY AT P =   9.83
 *******************************************************************************


    T (K)    V (Ang^3)    ALPHA (1/K)     B (GPa)

    10.00     256.865     0.17363E-07     263.897
    22.02     256.865     0.22282E-07     263.896
    34.04     256.866     0.13858E-06     263.895
    46.06     256.866     0.31698E-06     263.889
    58.08     256.867     0.59087E-06     263.877
    70.10     256.869     0.96185E-06     263.855
    82.12     256.873     0.14328E-05     263.822
    94.14     256.878     0.20050E-05     263.774
   106.16     256.885     0.26717E-05     263.709
   118.18     256.894     0.34186E-05     263.626
   130.20     256.906     0.42268E-05     263.525
   142.22     256.920     0.50759E-05     263.404
   154.24     256.937     0.59466E-05     263.265
   166.26     256.957     0.68223E-05     263.109
   178.28     256.980     0.76891E-05     262.937
   190.30     257.005     0.85363E-05     262.751
   202.32     257.032     0.93558E-05     262.551
   214.34     257.063     0.10142E-04     262.339
   226.36     257.095     0.10892E-04     262.117
   238.38     257.130     0.11604E-04     261.885
   250.40     257.167     0.12276E-04     261.644
   262.42     257.206     0.12726E-04     261.396
   274.44     257.247     0.13205E-04     261.141
   286.46     257.287     0.13731E-04     260.891
   298.48     257.331     0.14319E-04     260.626
   310.51     257.377     0.14984E-04     260.356
   322.53     257.424     0.15455E-04     260.081
   334.55     257.472     0.15897E-04     259.803
   346.57     257.522     0.16312E-04     259.521
   358.59     257.573     0.16703E-04     259.236
   370.61     257.626     0.17071E-04     258.948
   382.63     257.679     0.17418E-04     258.658
   394.65     257.734     0.17745E-04     258.365
   406.67     257.789     0.18054E-04     258.070
   418.69     257.846     0.18346E-04     257.773
   430.71     257.903     0.18621E-04     257.474
   442.73     257.961     0.18883E-04     257.174
   454.75     258.020     0.19130E-04     256.872
   466.77     258.080     0.19364E-04     256.569
   478.79     258.140     0.19586E-04     256.264
   490.81     258.201     0.19797E-04     255.958
   502.83     258.263     0.19999E-04     255.651
   514.85     258.326     0.20191E-04     255.343
   526.87     258.389     0.20375E-04     255.034
   538.89     258.452     0.20551E-04     254.724
   550.91     258.516     0.20719E-04     254.414
   562.93     258.581     0.20880E-04     254.102
   574.95     258.646     0.21035E-04     253.790
   586.97     258.712     0.21183E-04     253.477
   598.99     258.778     0.21325E-04     253.163
   611.01     258.845     0.21463E-04     252.849
   623.03     258.912     0.21595E-04     252.534
   635.05     258.979     0.21722E-04     252.219
   647.07     259.047     0.21845E-04     251.903
   659.09     259.115     0.21964E-04     251.586
   671.11     259.184     0.22079E-04     251.269
   683.13     259.253     0.22191E-04     250.951
   695.15     259.322     0.22299E-04     250.633
   707.17     259.392     0.22404E-04     250.315
   719.19     259.462     0.22506E-04     249.996
   731.21     259.532     0.22605E-04     249.676
   743.23     259.603     0.22701E-04     249.357
   755.25     259.674     0.22795E-04     249.036
   767.27     259.745     0.22886E-04     248.716
   779.29     259.817     0.22975E-04     248.395
   791.31     259.888     0.23063E-04     248.074
   803.33     259.961     0.23148E-04     247.752
   815.35     260.033     0.23231E-04     247.430
   827.37     260.106     0.23313E-04     247.108
   839.39     260.179     0.23392E-04     246.785
   851.41     260.252     0.23471E-04     246.462
   863.43     260.326     0.23547E-04     246.139
   875.45     260.400     0.23623E-04     245.815
   887.47     260.474     0.23697E-04     245.491
   899.49     260.548     0.23770E-04     245.167
   911.52     260.622     0.23841E-04     244.843
   923.54     260.697     0.23911E-04     244.518
   935.56     260.772     0.23981E-04     244.193
   947.58     260.848     0.24049E-04     243.868
   959.60     260.923     0.24116E-04     243.542
   971.62     260.999     0.24183E-04     243.216
   983.64     261.075     0.24248E-04     242.890
   995.66     261.151     0.24313E-04     242.563
  1007.68     261.228     0.24377E-04     242.237
  1019.70     261.304     0.24440E-04     241.910
  1031.72     261.381     0.24503E-04     241.583
  1043.74     261.458     0.24565E-04     241.255
  1055.76     261.535     0.24626E-04     240.928
  1067.78     261.613     0.24687E-04     240.599
  1079.80     261.691     0.24747E-04     240.271
  1091.82     261.769     0.24806E-04     239.943
  1103.84     261.847     0.24865E-04     239.614
  1115.86     261.925     0.24924E-04     239.285
  1127.88     262.004     0.24982E-04     238.956
  1139.90     262.083     0.25040E-04     238.627
  1151.92     262.162     0.25097E-04     238.297
  1163.94     262.241     0.25154E-04     237.967
  1175.96     262.320     0.25210E-04     237.637
  1187.98     262.400     0.25265E-04     237.306
  1200.00     262.479     0.25258E-04     236.976

 *******************************************************************************
 LINEAR THERMAL EXPANSION OF CONVENTIONAL LATTICE PARAMETERS
 *******************************************************************************


    T (K)  a (Ang)  ALPHA_a (1/K)  b (Ang)  ALPHA_b (1/K)  c (Ang)  ALPHA_c (1/K)

    10.00   4.7825   0.53336E-08   4.7825   0.53336E-08    12.9680   0.66959E-08
    22.02   4.7825   0.68447E-08   4.7825   0.68447E-08    12.9680   0.85931E-08
    34.04   4.7825   0.42571E-07   4.7825   0.42571E-07    12.9680   0.53444E-07
    46.06   4.7825   0.97373E-07   4.7825   0.97373E-07    12.9680   0.12224E-06
    58.08   4.7825   0.18151E-06   4.7825   0.18151E-06    12.9680   0.22786E-06
    70.10   4.7825   0.29548E-06   4.7825   0.29548E-06    12.9680   0.37090E-06
    82.12   4.7825   0.44017E-06   4.7825   0.44017E-06    12.9681   0.55249E-06
    94.14   4.7825   0.61597E-06   4.7825   0.61597E-06    12.9682   0.77306E-06
   106.16   4.7826   0.82085E-06   4.7826   0.82085E-06    12.9683   0.10300E-05
   118.18   4.7826   0.10504E-05   4.7826   0.10504E-05    12.9685   0.13178E-05
   130.20   4.7827   0.12988E-05   4.7827   0.12988E-05    12.9687   0.16291E-05
   142.22   4.7828   0.15599E-05   4.7828   0.15599E-05    12.9690   0.19560E-05
   154.24   4.7829   0.18278E-05   4.7829   0.18278E-05    12.9694   0.22911E-05
   166.26   4.7830   0.20973E-05   4.7830   0.20973E-05    12.9697   0.26278E-05
   178.28   4.7831   0.23642E-05   4.7831   0.23642E-05    12.9702   0.29608E-05
   190.30   4.7833   0.26252E-05   4.7833   0.26252E-05    12.9707   0.32860E-05
   202.32   4.7834   0.28778E-05   4.7834   0.28778E-05    12.9712   0.36002E-05
   214.34   4.7836   0.31205E-05   4.7836   0.31205E-05    12.9718   0.39014E-05
   226.36   4.7838   0.33521E-05   4.7838   0.33521E-05    12.9724   0.41882E-05
   238.38   4.7840   0.35721E-05   4.7840   0.35721E-05    12.9731   0.44598E-05
   250.40   4.7842   0.37802E-05   4.7842   0.37802E-05    12.9738   0.47161E-05
   262.42   4.7844   0.39197E-05   4.7844   0.39197E-05    12.9746   0.48864E-05
   274.44   4.7846   0.40687E-05   4.7846   0.40687E-05    12.9754   0.50680E-05
   286.46   4.7849   0.42321E-05   4.7849   0.42321E-05    12.9761   0.52671E-05
   298.48   4.7851   0.44148E-05   4.7851   0.44148E-05    12.9770   0.54895E-05
   310.51   4.7854   0.46215E-05   4.7854   0.46215E-05    12.9779   0.57415E-05
   322.53   4.7857   0.47683E-05   4.7857   0.47683E-05    12.9788   0.59182E-05
   334.55   4.7859   0.49064E-05   4.7859   0.49064E-05    12.9797   0.60838E-05
   346.57   4.7862   0.50366E-05   4.7862   0.50366E-05    12.9807   0.62390E-05
   358.59   4.7865   0.51594E-05   4.7865   0.51594E-05    12.9817   0.63846E-05
   370.61   4.7868   0.52752E-05   4.7868   0.52752E-05    12.9827   0.65211E-05
   382.63   4.7871   0.53845E-05   4.7871   0.53845E-05    12.9837   0.66493E-05
   394.65   4.7874   0.54879E-05   4.7874   0.54879E-05    12.9848   0.67697E-05
   406.67   4.7878   0.55857E-05   4.7878   0.55857E-05    12.9858   0.68828E-05
   418.69   4.7881   0.56783E-05   4.7881   0.56783E-05    12.9869   0.69893E-05
   430.71   4.7884   0.57661E-05   4.7884   0.57661E-05    12.9880   0.70895E-05
   442.73   4.7887   0.58494E-05   4.7887   0.58494E-05    12.9891   0.71839E-05
   454.75   4.7891   0.59285E-05   4.7891   0.59285E-05    12.9902   0.72728E-05
   466.77   4.7894   0.60037E-05   4.7894   0.60037E-05    12.9914   0.73565E-05
   478.79   4.7898   0.60751E-05   4.7898   0.60751E-05    12.9925   0.74355E-05
   490.81   4.7901   0.61434E-05   4.7901   0.61434E-05    12.9937   0.75103E-05
   502.83   4.7905   0.62087E-05   4.7905   0.62087E-05    12.9949   0.75813E-05
   514.85   4.7908   0.62713E-05   4.7908   0.62713E-05    12.9961   0.76487E-05
   526.87   4.7912   0.63312E-05   4.7912   0.63312E-05    12.9973   0.77127E-05
   538.89   4.7916   0.63887E-05   4.7916   0.63887E-05    12.9985   0.77735E-05
   550.91   4.7919   0.64439E-05   4.7919   0.64439E-05    12.9997   0.78313E-05
   562.93   4.7923   0.64969E-05   4.7923   0.64969E-05    13.0009   0.78863E-05
   574.95   4.7927   0.65479E-05   4.7927   0.65479E-05    13.0022   0.79387E-05
   586.97   4.7931   0.65971E-05   4.7931   0.65971E-05    13.0034   0.79887E-05
   598.99   4.7935   0.66445E-05   4.7935   0.66445E-05    13.0047   0.80365E-05
   611.01   4.7938   0.66903E-05   4.7938   0.66903E-05    13.0059   0.80821E-05
   623.03   4.7942   0.67346E-05   4.7942   0.67346E-05    13.0072   0.81257E-05
   635.05   4.7946   0.67774E-05   4.7946   0.67774E-05    13.0085   0.81675E-05
   647.07   4.7950   0.68189E-05   4.7950   0.68189E-05    13.0098   0.82076E-05
   659.09   4.7954   0.68591E-05   4.7954   0.68591E-05    13.0110   0.82461E-05
   671.11   4.7958   0.68982E-05   4.7958   0.68982E-05    13.0123   0.82830E-05
   683.13   4.7962   0.69362E-05   4.7962   0.69362E-05    13.0136   0.83185E-05
   695.15   4.7966   0.69731E-05   4.7966   0.69731E-05    13.0149   0.83527E-05
   707.17   4.7970   0.70091E-05   4.7970   0.70091E-05    13.0162   0.83856E-05
   719.19   4.7974   0.70441E-05   4.7974   0.70441E-05    13.0176   0.84174E-05
   731.21   4.7978   0.70783E-05   4.7978   0.70783E-05    13.0189   0.84480E-05
   743.23   4.7982   0.71117E-05   4.7982   0.71117E-05    13.0202   0.84776E-05
   755.25   4.7986   0.71443E-05   4.7986   0.71443E-05    13.0215   0.85062E-05
   767.27   4.7990   0.71762E-05   4.7990   0.71762E-05    13.0229   0.85339E-05
   779.29   4.7995   0.72074E-05   4.7995   0.72074E-05    13.0242   0.85607E-05
   791.31   4.7999   0.72379E-05   4.7999   0.72379E-05    13.0255   0.85867E-05
   803.33   4.8003   0.72679E-05   4.8003   0.72679E-05    13.0269   0.86120E-05
   815.35   4.8007   0.72973E-05   4.8007   0.72973E-05    13.0282   0.86365E-05
   827.37   4.8011   0.73261E-05   4.8011   0.73261E-05    13.0296   0.86603E-05
   839.39   4.8016   0.73544E-05   4.8016   0.73544E-05    13.0310   0.86835E-05
   851.41   4.8020   0.73823E-05   4.8020   0.73823E-05    13.0323   0.87061E-05
   863.43   4.8024   0.74097E-05   4.8024   0.74097E-05    13.0337   0.87281E-05
   875.45   4.8028   0.74366E-05   4.8028   0.74366E-05    13.0351   0.87495E-05
   887.47   4.8033   0.74632E-05   4.8033   0.74632E-05    13.0364   0.87705E-05
   899.49   4.8037   0.74893E-05   4.8037   0.74893E-05    13.0378   0.87909E-05
   911.52   4.8041   0.75151E-05   4.8041   0.75151E-05    13.0392   0.88109E-05
   923.54   4.8046   0.75405E-05   4.8046   0.75405E-05    13.0406   0.88304E-05
   935.56   4.8050   0.75656E-05   4.8050   0.75656E-05    13.0419   0.88496E-05
   947.58   4.8054   0.75903E-05   4.8054   0.75903E-05    13.0433   0.88683E-05
   959.60   4.8059   0.76148E-05   4.8059   0.76148E-05    13.0447   0.88867E-05
   971.62   4.8063   0.76390E-05   4.8063   0.76390E-05    13.0461   0.89048E-05
   983.64   4.8068   0.76629E-05   4.8068   0.76629E-05    13.0475   0.89225E-05
   995.66   4.8072   0.76866E-05   4.8072   0.76866E-05    13.0489   0.89400E-05
  1007.68   4.8077   0.77100E-05   4.8077   0.77100E-05    13.0503   0.89571E-05
  1019.70   4.8081   0.77332E-05   4.8081   0.77332E-05    13.0517   0.89740E-05
  1031.72   4.8086   0.77562E-05   4.8086   0.77562E-05    13.0531   0.89906E-05
  1043.74   4.8090   0.77789E-05   4.8090   0.77789E-05    13.0546   0.90069E-05
  1055.76   4.8095   0.78014E-05   4.8095   0.78014E-05    13.0560   0.90231E-05
  1067.78   4.8099   0.78238E-05   4.8099   0.78238E-05    13.0574   0.90390E-05
  1079.80   4.8104   0.78460E-05   4.8104   0.78460E-05    13.0588   0.90547E-05
  1091.82   4.8108   0.78680E-05   4.8108   0.78680E-05    13.0602   0.90702E-05
  1103.84   4.8113   0.78898E-05   4.8113   0.78898E-05    13.0617   0.90856E-05
  1115.86   4.8117   0.79115E-05   4.8117   0.79115E-05    13.0631   0.91008E-05
  1127.88   4.8122   0.79330E-05   4.8122   0.79330E-05    13.0645   0.91158E-05
  1139.90   4.8126   0.79544E-05   4.8126   0.79544E-05    13.0659   0.91307E-05
  1151.92   4.8131   0.79757E-05   4.8131   0.79757E-05    13.0674   0.91454E-05
  1163.94   4.8136   0.79968E-05   4.8136   0.79968E-05    13.0688   0.91600E-05
  1175.96   4.8140   0.80178E-05   4.8140   0.80178E-05    13.0703   0.91745E-05
  1187.98   4.8145   0.80384E-05   4.8145   0.80384E-05    13.0717   0.91885E-05
  1200.00   4.8150   0.80377E-05   4.8150   0.80377E-05    13.0731   0.91875E-05
 TTTTTTTTTTTTTTTTTTTTTTTTTTTTTT QHA         TELAPSE     6489.27 TCPU     6484.52
 TTTTTTTTTTTTTTTTTTTTTTTTTTTTTT END         TELAPSE     6489.27 TCPU     6484.52
 EEEEEEEEEE TERMINATION  DATE 01 06 2016 TIME 11:32:36.8
NODE    0 CPU TIME =      6484.521
NODE    1 CPU TIME =      6434.918
NODE    2 CPU TIME =      6432.778
NODE    3 CPU TIME =      6434.678
NODE    4 CPU TIME =      6434.234
NODE    5 CPU TIME =      6434.818
NODE    6 CPU TIME =      6433.522
NODE    7 CPU TIME =      6434.090
NODE    8 CPU TIME =      6434.374
NODE    9 CPU TIME =      6434.842
NODE   10 CPU TIME =      6432.378
NODE   11 CPU TIME =      6434.386
NODE   12 CPU TIME =      6434.362
NODE   13 CPU TIME =      6434.734
NODE   14 CPU TIME =      6432.326
NODE   15 CPU TIME =      6434.894
NODE   16 CPU TIME =      6431.650
NODE   17 CPU TIME =      6433.630
NODE   18 CPU TIME =      6435.366
NODE   19 CPU TIME =      6434.498
NODE   20 CPU TIME =      6434.618
NODE   21 CPU TIME =      6434.862
NODE   22 CPU TIME =      6434.006
NODE   23 CPU TIME =      6435.370
NODE   24 CPU TIME =      6432.534
NODE   25 CPU TIME =      6431.794
NODE   26 CPU TIME =      6432.398
NODE   27 CPU TIME =      6433.890
NODE   28 CPU TIME =      6432.754
NODE   29 CPU TIME =      6432.894
NODE   30 CPU TIME =      6432.782
NODE   31 CPU TIME =      6433.306
    TOTAL CPU TIME =    205932.210
Wed Jun  1 11:32:36 CEST 2016
