  80  80
   1   1
    50.571004488257536    14.776594895809971     5.165869971426148
    14.776594895809971    27.692259266992146    24.151236851169529
     5.165869971426148    24.151236851169529    31.534791962502663
   1   2
     0.000163150524029    -0.032860544521306     0.039939318047776
     0.032860544521306    -0.199189198229658     0.143364281065486
     0.039939318047776    -0.143364281065486     0.191910687710979
   1   3
    -0.002971187073578    -0.009544549441258    -0.012179958677552
    -0.009544549441258     0.076931470019739     0.007994251845494
    -0.012179958677552     0.007994251845494    -0.106635377360309
   1   4
    -0.011191282892537     0.031525966831389    -0.023867814064605
    -0.031525966831389     0.148774230190917    -0.238779539545178
    -0.023867814064605     0.238779539545178    -0.377064295943414
   1   5
    -0.020746822650264     0.000539946032525    -0.040080481948238
    -0.510854609851859    -0.046271339272097    -0.044053260231095
    -0.509420128277684    -0.021904985016298    -0.064206034789905
   1   6
    -0.011117198435018     0.000774581188065    -0.014572450007072
    -0.050681062308691     0.042643309728276    -0.084326428028259
    -0.064483265903408     0.017982545880630    -0.143272029215386
   1   7
    -0.037786118144974     0.002130692052391     0.035420495083772
    -0.027283119507895    -0.101449495943826     0.088806303328904
    -0.013985598082614    -0.029282488496294     0.176283841057242
   1   8
    -3.470613763812655    -1.050040039885738    -0.569887359921779
    -1.698979313527681    -0.054044365222820    -0.207552448573330
    -1.801409410453801    -0.572571560299975     0.201498723543799
   1   9
     0.000120365528352    -0.025580209424555    -0.081186982169194
    -0.271604649053388    -0.611392663119774    -0.632484512922076
    -0.321376060413494    -0.490961941838759    -0.727246649630948
   1  10
    -0.004882462126683     0.011087117038916    -0.021056080060765
    -0.065142520262834     0.100395827743431    -0.161815023970886
    -0.084994646767860     0.086130347105313    -0.209809184096520
   1  11
     0.008713492334133     0.005042153309618     0.035470798016899
    -0.010163012093459    -0.143618328983093     0.036502104498641
     0.070065984811996    -0.022769490561137     0.196114280025397
   1  12
    -1.192980751483080     0.476382147828795     0.186385323708507
    -0.293229560230233     0.351720797573449    -0.197668008975338
    -0.011892424839096     0.058797942507441    -0.028908505362595
   1  13
     0.568623898837201     0.314922663300252    -0.202480063083972
     0.336843740479234     0.236385324715340     0.064530152368583
    -0.252376197299629     0.109155690569825     0.216959759190855
   1  14
    -0.016276528378943    -0.021947705681338     0.028343999398302
    -0.011347548592531    -0.100462328869328     0.114786609287721
    -0.029932133126802    -0.107283475364725     0.147414284188672
   1  15
     0.006336687456749     0.005029348998115     0.000635094194418
     0.049425179484253     0.110371503575830     0.104614818938795
     0.017962727139698    -0.005234495648715    -0.043135526154428
   1  16
    -0.115298032239404     0.020130113541019     0.011382652271657
     0.054518972937581    -0.233983490518228     0.243931293580126
     0.091180656781351    -0.165687717860535     0.141204641886795
   1  17
    -0.722815690243754    -0.205612024576389     0.856627440092181
    -0.437952851929329     0.486966907684169     0.287885989771778
     0.326923426233100    -0.156911020724065     0.122918327030837
   1  18
     0.005335033498938     0.005340140713744    -0.027435614875890
    -0.003475537139281    -0.063276606865737     0.015411046598357
    -0.042674256486902    -0.049588885225767    -0.038224945863174
   1  19
     0.019203520702511     0.005102038406252    -0.004481676929993
     0.006320702564931    -0.009650251378360     0.014155991888564
     0.014091440811175     0.006979913600685     0.026876335113780
   1  20
     0.017211208787609    -0.039432604134099     0.008049315778003
     0.033213236363874     0.018261996526541    -0.040304958686560
     0.035750943230474    -0.044102212975183    -0.005100676107477
   1  21
     0.719031029623222    -3.253323370873370    -3.603531534281760
    -0.859252289452724    -2.920176931007855    -3.579320568187324
    -0.626113165466556    -1.832346702946857    -0.898403615038519
   1  22
     0.008331840629689    -0.013493924968320     0.024106445801578
    -0.062853115468836    -0.116378924504906    -0.078775484144712
    -0.002523613607881    -0.080239017034847    -0.058047987687682
   1  23
     0.008030248345979     0.007137778182642     0.002212971031218
    -0.044896974438025    -0.039653672301663     0.032434120432039
    -0.021304879139551    -0.032401249971448     0.006188248594672
   1  24
    -0.037462671073644     0.012205356831508     0.010620667581920
    -0.069298566362383     0.048375086280169    -0.016937107871107
    -0.077806038835898     0.070760843122756    -0.056336550809217
   1  25
   -11.198012521047726    -2.042547208389334     0.553344529017624
     0.901872395800945   -17.388059311527542   -14.634804177180406
     3.583515239841924   -14.100883706103495   -21.874249547148590
   1  26
    -0.005319427708733     0.041960883081423    -0.053821684294611
    -0.049258969522896     0.186898708655728    -0.176649351929578
    -0.046513442852868     0.169986679013326    -0.182818297137384
   1  27
    -0.007291562157208     0.004476931816362     0.001917215624494
     0.038507821841926    -0.067891163464422    -0.077786985999874
    -0.018283712017978     0.027363180051403     0.051226763915074
   1  28
    -0.003961944133611    -0.031169427015892     0.032275637302336
    -0.001194468449457    -0.165374991581091     0.180530902128338
    -0.003272723820171    -0.237518795124549     0.269425113624274
   1  29
     0.463441213002324     2.699663814925192     3.354105891458981
     0.478825746004718    -0.275012204446673    -1.421448691715891
     0.838031051424975    -3.297800608069946    -3.216021781651744
   1  30
    -0.003739090704148    -0.005996694318291     0.003145089915053
    -0.012620888900152    -0.035524126858891     0.022520397288734
     0.009631437537099    -0.035485818134971     0.014406287055024
   1  31
    -0.009734555563444    -0.018860501802676    -0.005014342757664
    -0.033712138159327    -0.056681147473914     0.022385018953161
     0.004167607140563    -0.036742735134102     0.020030174404654
   1  32
    -0.005671938497619     0.015186935585952    -0.021043106912833
     0.009911243484055     0.019728608586908    -0.037002611952165
     0.144022107464112    -0.013364940028278    -0.093290515645561
   1  33
    -0.593993483450515    -0.836818424830568    -0.048051500131260
    -0.540432095313410     0.198004253776172    -0.319812322489307
     0.517854135537095     0.051191038403749     0.399425053804109
   1  34
    -0.002250721685523    -0.000692195589689     0.001599239226344
     0.008152407302236     0.015124502605662    -0.039783709492267
    -0.002013476766514     0.011437805288299    -0.026354973508405
   1  35
    -0.019400071401113    -0.000535956283334     0.018788190220672
     0.057465529852082    -0.060591616819649     0.007868512317127
     0.033437676076499    -0.001574123281155    -0.029237131894176
   1  36
     0.088250742371301    -0.016739773593734     0.010313681221564
     0.031943990840515     0.012165070117591    -0.010059619026701
    -0.171837069561947     0.150147221924309     0.033733080497105
   1  37
     0.029602821134591     0.036039847117668     0.037190844457607
     0.778898934847205     0.351733332090629     0.244610996225544
     0.786765134231082     0.344009479528358     0.264629939830829
   1  38
     0.012165125972506    -0.013073299341507     0.016593922949851
     0.122000785495302    -0.129836497971173     0.159074788626035
     0.139573852735424    -0.140703771062322     0.224314701385665
   1  39
     0.027585920205342    -0.025682179052040    -0.082386122687105
     0.037506398795885     0.059024541397193    -0.091187314304548
    -0.063571675018849    -0.085093713425913    -0.329566030932276
   1  40
     1.760598386426918    -0.122480134966082    -0.449013502063305
     0.826029490249808     0.031019252695065    -0.367474370253956
     0.642652927708962     0.185107545418423    -0.674447131986524
   1  41
    -0.000727293545541    -0.017034063176765     0.000142671208694
    -0.026965769758794    -0.083994971288402    -0.014939408018624
    -0.031649445553447    -0.087616526603968    -0.018067089756257
   1  42
     0.004164277145820     0.009214204402838    -0.003884309681845
    -0.017951513980649     0.078284037807455    -0.047997026209239
    -0.025856613055203     0.080782797151506    -0.049750869744393
   1  43
    -0.026527835699288    -0.002165371871127     0.040784664110401
    -0.018255861696199     0.008116878060258    -0.004229891003774
    -0.035578403213478     0.041911302354406     0.062585704422703
   1  44
    -0.002610352605668    -0.023219308873639    -0.018854512369059
    -0.133979647236850    -0.004282486270184     0.118193595607298
    -0.066302117277041    -0.035892148334665     0.076654303981177
   1  45
     0.026883558520308    -0.102630598874364    -0.117480849796719
     0.008648328050128    -0.061601299388433    -0.074657595897378
    -0.001387571335798    -0.022641517112985    -0.036899230629644
   1  46
     0.001632116964951    -0.000111806343242     0.015656310544776
     0.023449699862846    -0.004926481234190     0.057628854318346
     0.048338724827563     0.020406944327333     0.083956816462197
   1  47
     0.004170457347453     0.002083705904578    -0.000655804188409
    -0.014039797986128     0.027052922310572    -0.012728422515485
    -0.002022681586775     0.022067997129751    -0.018623694220020
   1  48
    -0.006567588026209     0.009695235382360     0.025294983654866
    -0.010739886913176    -0.002349933506225     0.039956585243437
     0.016766567399618     0.015828431041949     0.047602966063840
   1  49
     0.068358029136752     0.195886751302178    -0.083598106435210
     0.142536063906183    -0.067240031765361     0.217570523720174
    -0.147684347903755     0.190733419490567    -0.033196810811759
   1  50
    -0.008835843999463     0.006254727247573    -0.014122254730496
     0.070893536819950     0.083817744942473    -0.008697075216104
     0.032180042868558     0.069341458007609    -0.032257507697958
   1  51
     0.003097324037522    -0.000432017680033     0.002199213451018
     0.005591417831852     0.010369091005776     0.002282815746405
     0.015004393434077     0.009989281808529     0.009456306057295
   1  52
    -0.002910335607053    -0.001688263320170     0.010225985206648
     0.011409177823220     0.000824141558925     0.006189406103187
     0.023186116885230     0.000596981855907     0.013692587262421
   1  53
     0.103162709631076     0.126205029121505    -0.146220588517629
     0.195683345482704    -0.074398111193222     0.232769976314428
    -0.120510086966406     0.252922041656369     0.021603912976978
   1  54
     0.002735155521806     0.003680573379790     0.000074271212230
     0.011965955432630     0.014065960643444    -0.000522960938735
     0.004318317578965     0.003031978604205    -0.003920822963118
   1  55
     0.003001929240329    -0.005692111681350     0.013773021235120
    -0.006109847768664    -0.001829514949964    -0.057554963647318
     0.015928484470516    -0.013894310112807    -0.004127161731058
   1  56
    -0.000562700523708    -0.003492899699447     0.002544345297634
     0.002828650941638     0.007826784074750     0.014064774726985
    -0.006237083099736     0.011361626719555     0.019650740720084
   1  57
     0.016101525177908     0.090132949284993     0.107742929026221
     0.021596227040452    -0.014286636361750    -0.004601851335892
     0.010175620132047    -0.077035720292518    -0.096964054861584
   1  58
     0.001612415230138     0.000053305880881     0.003945724965038
     0.006555656075509     0.006590453250749     0.010189941370015
     0.010406358673534     0.004303326873407     0.019660875786443
   1  59
    -0.001905388876202    -0.006034396532715    -0.005514999668901
    -0.079818988283358     0.107142757415375    -0.011436109016088
    -0.014164733468970     0.030793006793024    -0.028418012485758
   1  60
    -0.070539108079958    -0.036952479384285     0.029268020275935
    -0.062527263617930    -0.082023502941116     0.050412863071863
     0.050476707199009    -0.063117643577688    -0.093122948432663
   1  61
   -36.373199562273456   -10.772154513496838    -4.714811938496667
   -13.107709999155103    -7.187057185770573    -4.211376836201346
    -7.504002651404769    -4.539856035996785    -5.259371756565733
   1  62
     0.007663709119748     0.014400419912860    -0.014381611824370
    -0.032712511923779     0.102233374783532    -0.068040254437556
    -0.038640192189651     0.063041511964250    -0.093526274732625
   1  63
     0.001375214042040     0.001465837431395     0.008362561559928
     0.004649358808556    -0.033896550334810     0.030152713394752
     0.044261272636083    -0.008491051335407     0.081090588918033
   1  64
     0.023013806668655    -0.006907785401151     0.013422995841174
     0.153924747768574    -0.014517882172060     0.074352829513592
     0.182910321016917    -0.043475845486850     0.111498186207272
   1  65
    -0.016492773950620    -0.015103767524436     0.000208768657647
    -0.096326087810782    -0.042740230478333     0.046451519316772
    -0.105639836413999    -0.056861803536593     0.084237746828981
   1  66
    -0.001795419353993     0.001916039213373     0.005401789456826
    -0.002898782273180     0.002258509825483     0.020290027506590
    -0.013039031949465     0.026512247301064     0.054576935959315
   1  67
    -0.012594744768533     0.016319120527580    -0.015363256892899
    -0.018157410357574     0.116089285160081    -0.086195746917767
    -0.017273680512956     0.088734032251269    -0.108490858333574
   1  68
    -0.025068399476188    -0.200161698862455    -0.354625336692882
    -0.529278092311349    -0.161001338505030     0.118061541122153
    -0.497739836283106     0.050224452940040    -0.027213602481489
   1  69
    -0.001639121854887     0.002879646283247    -0.001985637692889
     0.004497832247253     0.010656893739160    -0.014332717063701
    -0.000718506851220     0.005007420000205    -0.018398332933978
   1  70
    -0.003974431143857    -0.009600908677955     0.002245494720713
     0.017601169862429    -0.067771008147508     0.004240932790642
     0.015742841235621    -0.061658854170311    -0.006729132529656
   1  71
    -0.003089168692063     0.009034821064782     0.004199215310672
     0.001628861155769     0.003366502920037     0.001912794980124
    -0.024895488516680     0.019144549060511     0.018276484897273
   1  72
    -0.043656953299081     0.014068119069362    -0.007908980152998
     0.074105616212247    -0.028020014895855    -0.031070852331545
     0.007741586296628    -0.016637891409994     0.012002080946923
   1  73
     0.002689270727632    -0.000500264118941    -0.000492481271721
     0.006294670373411     0.005039044269735    -0.001673748126806
     0.008049127503868    -0.001126736867006     0.001854524918105
   1  74
     0.000559559964881     0.002322466799341     0.001100607257084
    -0.006336934463133    -0.008557676152388    -0.000316368067204
    -0.005952386744719    -0.004805282675663     0.002849741894099
   1  75
    -0.002050743119052     0.000426046185308     0.000240438637156
    -0.000502627583489     0.006546190656208    -0.002565233414535
    -0.022860429500990    -0.047656048007483     0.011575521433599
   1  76
    -0.151403786217842    -0.002962411143584     0.054500299992447
     0.023107281064151    -0.050220959986618    -0.045409788196365
    -0.064915248648271     0.002486310920556    -0.010451023778709
   1  77
     0.002288016973751    -0.003169671140901    -0.000146037843746
     0.009636379592191    -0.006908912269487    -0.017505536192585
     0.012825959774050    -0.003208353977249    -0.017519085757276
   1  78
     0.006263138667453    -0.005167803621116     0.005247493049532
     0.028830361531583    -0.007352326912165     0.038545628490836
     0.033521168089303    -0.007260068787877     0.044793356164270
   1  79
     0.018688741646525     0.001154359169951    -0.018149178102302
     0.014399826001582    -0.055298503620390    -0.015863311692171
     0.102293007591403    -0.029417807244224    -0.045650517535696
   1  80
    -0.046186009904473     0.011784289349076     0.013741522958908
     0.022494536917902     0.023729214569169    -0.005231344728034
    -0.014978364670929     0.016949065982332     0.007881700963227
   2   1
     0.000163150524029     0.032860544521306     0.039939318047776
    -0.032860544521306    -0.199189198229658    -0.143364281065486
     0.039939318047776     0.143364281065486     0.191910687710979
   2   2
    50.571004488257536   -14.776594895809971     5.165869971426148
   -14.776594895809971    27.692259266992146   -24.151236851169529
     5.165869971426148   -24.151236851169529    31.534791962502663
   2   3
    -0.011191282892537    -0.031525966831389    -0.023867814064605
     0.031525966831389     0.148774230190917     0.238779539545178
    -0.023867814064605    -0.238779539545178    -0.377064295943414
   2   4
    -0.002971187073578     0.009544549441258    -0.012179958677552
     0.009544549441258     0.076931470019739    -0.007994251845494
    -0.012179958677552    -0.007994251845494    -0.106635377360309
   2   5
    -0.011117198435018    -0.000774581188065    -0.014572450007072
     0.050681062308691     0.042643309728276     0.084326428028259
    -0.064483265903408    -0.017982545880630    -0.143272029215386
   2   6
    -0.020746822650264    -0.000539946032525    -0.040080481948238
     0.510854609851859    -0.046271339272097     0.044053260231095
    -0.509420128277684     0.021904985016298    -0.064206034789905
   2   7
    -3.470613763812655     1.050040039885738    -0.569887359921779
     1.698979313527681    -0.054044365222820     0.207552448573330
    -1.801409410453801     0.572571560299975     0.201498723543799
   2   8
    -0.037786118144974    -0.002130692052391     0.035420495083772
     0.027283119507895    -0.101449495943826    -0.088806303328904
    -0.013985598082614     0.029282488496295     0.176283841057242
   2   9
    -0.004882462126683    -0.011087117038916    -0.021056080060765
     0.065142520262834     0.100395827743431     0.161815023970886
    -0.084994646767860    -0.086130347105313    -0.209809184096520
   2  10
     0.000120365528352     0.025580209424555    -0.081186982169194
     0.271604649053388    -0.611392663119774     0.632484512922067
    -0.321376060413494     0.490961941838759    -0.727246649630948
   2  11
    -1.192980751483080    -0.476382147828795     0.186385323708507
     0.293229560230233     0.351720797573449     0.197668008975338
    -0.011892424839096    -0.058797942507441    -0.028908505362595
   2  12
     0.008713492334133    -0.005042153309618     0.035470798016899
     0.010163012093459    -0.143618328983093    -0.036502104498641
     0.070065984811996     0.022769490561137     0.196114280025397
   2  13
    -0.016276528378943     0.021947705681338     0.028343999398302
     0.011347548592531    -0.100462328869328    -0.114786609287721
    -0.029932133126802     0.107283475364725     0.147414284188672
   2  14
     0.568623898837201    -0.314922663300252    -0.202480063083972
    -0.336843740479234     0.236385324715340    -0.064530152368583
    -0.252376197299629    -0.109155690569825     0.216959759190855
   2  15
    -0.115298032239404    -0.020130113541019     0.011382652271657
    -0.054518972937581    -0.233983490518228    -0.243931293580126
     0.091180656781351     0.165687717860535     0.141204641886795
   2  16
     0.006336687456749    -0.005029348998115     0.000635094194418
    -0.049425179484253     0.110371503575830    -0.104614818938795
     0.017962727139698     0.005234495648715    -0.043135526154428
   2  17
     0.005335033498938    -0.005340140713744    -0.027435614875890
     0.003475537139281    -0.063276606865737    -0.015411046598357
    -0.042674256486902     0.049588885225767    -0.038224945863174
   2  18
    -0.722815690243754     0.205612024576389     0.856627440092181
     0.437952851929329     0.486966907684169    -0.287885989771778
     0.326923426233100     0.156911020724065     0.122918327030837
   2  19
     0.017211208787609     0.039432604134099     0.008049315778003
    -0.033213236363874     0.018261996526541     0.040304958686560
     0.035750943230474     0.044102212975183    -0.005100676107477
   2  20
     0.019203520702511    -0.005102038406252    -0.004481676929993
    -0.006320702564931    -0.009650251378360    -0.014155991888564
     0.014091440811175    -0.006979913600685     0.026876335113780
   2  21
     0.008331840629689     0.013493924968320     0.024106445801578
     0.062853115468836    -0.116378924504906     0.078775484144712
    -0.002523613607881     0.080239017034847    -0.058047987687682
   2  22
     0.719031029623222     3.253323370873370    -3.603531534281760
     0.859252289452724    -2.920176931007855     3.579320568187324
    -0.626113165466556     1.832346702946857    -0.898403615038519
   2  23
    -0.037462671073644    -0.012205356831508     0.010620667581920
     0.069298566362383     0.048375086280169     0.016937107871107
    -0.077806038835898    -0.070760843122756    -0.056336550809217
   2  24
     0.008030248345979    -0.007137778182642     0.002212971031218
     0.044896974438025    -0.039653672301663    -0.032434120432039
    -0.021304879139551     0.032401249971448     0.006188248594672
   2  25
    -0.005319427708733    -0.041960883081423    -0.053821684294611
     0.049258969522896     0.186898708655728     0.176649351929578
    -0.046513442852868    -0.169986679013326    -0.182818297137384
   2  26
   -11.198012521047726     2.042547208389334     0.553344529017634
    -0.901872395800945   -17.388059311527542    14.634804177180406
     3.583515239841924    14.100883706103495   -21.874249547148590
   2  27
    -0.003961944133611     0.031169427015892     0.032275637302336
     0.001194468449457    -0.165374991581091    -0.180530902128338
    -0.003272723820171     0.237518795124549     0.269425113624274
   2  28
    -0.007291562157208    -0.004476931816362     0.001917215624494
    -0.038507821841926    -0.067891163464422     0.077786985999874
    -0.018283712017978    -0.027363180051403     0.051226763915074
   2  29
    -0.003739090704148     0.005996694318291     0.003145089915053
     0.012620888900152    -0.035524126858891    -0.022520397288734
     0.009631437537099     0.035485818134971     0.014406287055024
   2  30
     0.463441213002324    -2.699663814925192     3.354105891458981
    -0.478825746004718    -0.275012204446673     1.421448691715891
     0.838031051424975     3.297800608069946    -3.216021781651744
   2  31
    -0.005671938497619    -0.015186935585952    -0.021043106912833
    -0.009911243484055     0.019728608586908     0.037002611952165
     0.144022107464112     0.013364940028278    -0.093290515645561
   2  32
    -0.009734555563444     0.018860501802676    -0.005014342757664
     0.033712138159327    -0.056681147473914    -0.022385018953161
     0.004167607140563     0.036742735134102     0.020030174404654
   2  33
    -0.002250721685523     0.000692195589689     0.001599239226344
    -0.008152407302236     0.015124502605662     0.039783709492267
    -0.002013476766514    -0.011437805288299    -0.026354973508405
   2  34
    -0.593993483450515     0.836818424830568    -0.048051500131260
     0.540432095313410     0.198004253776172     0.319812322489307
     0.517854135537095    -0.051191038403749     0.399425053804109
   2  35
     0.088250742371301     0.016739773593734     0.010313681221564
    -0.031943990840515     0.012165070117591     0.010059619026701
    -0.171837069561947    -0.150147221924309     0.033733080497105
   2  36
    -0.019400071401113     0.000535956283334     0.018788190220672
    -0.057465529852082    -0.060591616819649    -0.007868512317127
     0.033437676076499     0.001574123281155    -0.029237131894176
   2  37
     0.012165125972506     0.013073299341507     0.016593922949851
    -0.122000785495302    -0.129836497971173    -0.159074788626035
     0.139573852735424     0.140703771062322     0.224314701385665
   2  38
     0.029602821134591    -0.036039847117667     0.037190844457607
    -0.778898934847205     0.351733332090629    -0.244610996225544
     0.786765134231082    -0.344009479528358     0.264629939830829
   2  39
     1.760598386426918     0.122480134966082    -0.449013502063305
    -0.826029490249808     0.031019252695065     0.367474370253956
     0.642652927708962    -0.185107545418423    -0.674447131986524
   2  40
     0.027585920205342     0.025682179052040    -0.082386122687105
    -0.037506398795885     0.059024541397193     0.091187314304548
    -0.063571675018849     0.085093713425913    -0.329566030932276
   2  41
     0.004164277145820    -0.009214204402838    -0.003884309681845
     0.017951513980649     0.078284037807455     0.047997026209239
    -0.025856613055203    -0.080782797151506    -0.049750869744393
   2  42
    -0.000727293545541     0.017034063176765     0.000142671208694
     0.026965769758794    -0.083994971288402     0.014939408018624
    -0.031649445553447     0.087616526603968    -0.018067089756257
   2  43
    -0.002610352605668     0.023219308873639    -0.018854512369059
     0.133979647236850    -0.004282486270184    -0.118193595607298
    -0.066302117277041     0.035892148334665     0.076654303981177
   2  44
    -0.026527835699288     0.002165371871127     0.040784664110401
     0.018255861696199     0.008116878060258     0.004229891003774
    -0.035578403213478    -0.041911302354406     0.062585704422703
   2  45
     0.001632116964951     0.000111806343242     0.015656310544776
    -0.023449699862846    -0.004926481234191    -0.057628854318345
     0.048338724827563    -0.020406944327333     0.083956816462197
   2  46
     0.026883558520308     0.102630598874364    -0.117480849796719
    -0.008648328050128    -0.061601299388433     0.074657595897378
    -0.001387571335798     0.022641517112985    -0.036899230629644
   2  47
    -0.006567588026209    -0.009695235382360     0.025294983654866
     0.010739886913176    -0.002349933506225    -0.039956585243437
     0.016766567399618    -0.015828431041949     0.047602966063840
   2  48
     0.004170457347453    -0.002083705904578    -0.000655804188409
     0.014039797986128     0.027052922310572     0.012728422515485
    -0.002022681586775    -0.022067997129751    -0.018623694220020
   2  49
    -0.008835843999463    -0.006254727247573    -0.014122254730496
    -0.070893536819950     0.083817744942473     0.008697075216104
     0.032180042868558    -0.069341458007609    -0.032257507697958
   2  50
     0.068358029136752    -0.195886751302178    -0.083598106435210
    -0.142536063906183    -0.067240031765361    -0.217570523720174
    -0.147684347903755    -0.190733419490567    -0.033196810811759
   2  51
    -0.002910335607053     0.001688263320170     0.010225985206648
    -0.011409177823220     0.000824141558925    -0.006189406103187
     0.023186116885230    -0.000596981855907     0.013692587262421
   2  52
     0.003097324037522     0.000432017680033     0.002199213451018
    -0.005591417831852     0.010369091005776    -0.002282815746405
     0.015004393434077    -0.009989281808529     0.009456306057295
   2  53
     0.002735155521806    -0.003680573379790     0.000074271212230
    -0.011965955432630     0.014065960643444     0.000522960938735
     0.004318317578965    -0.003031978604205    -0.003920822963118
   2  54
     0.103162709631076    -0.126205029121505    -0.146220588517629
    -0.195683345482704    -0.074398111193222    -0.232769976314428
    -0.120510086966406    -0.252922041656369     0.021603912976978
   2  55
    -0.000562700523708     0.003492899699447     0.002544345297634
    -0.002828650941638     0.007826784074750    -0.014064774726985
    -0.006237083099736    -0.011361626719555     0.019650740720084
   2  56
     0.003001929240329     0.005692111681350     0.013773021235120
     0.006109847768664    -0.001829514949964     0.057554963647318
     0.015928484470516     0.013894310112807    -0.004127161731058
   2  57
     0.001612415230138    -0.000053305880881     0.003945724965038
    -0.006555656075509     0.006590453250749    -0.010189941370015
     0.010406358673534    -0.004303326873407     0.019660875786443
   2  58
     0.016101525177908    -0.090132949284993     0.107742929026221
    -0.021596227040452    -0.014286636361750     0.004601851335892
     0.010175620132047     0.077035720292518    -0.096964054861584
   2  59
    -0.070539108079958     0.036952479384285     0.029268020275935
     0.062527263617930    -0.082023502941116    -0.050412863071863
     0.050476707199009     0.063117643577688    -0.093122948432663
   2  60
    -0.001905388876202     0.006034396532715    -0.005514999668901
     0.079818988283358     0.107142757415375     0.011436109016088
    -0.014164733468970    -0.030793006793024    -0.028418012485758
   2  61
     0.007663709119748    -0.014400419912860    -0.014381611824370
     0.032712511923779     0.102233374783532     0.068040254437556
    -0.038640192189651    -0.063041511964250    -0.093526274732625
   2  62
   -36.373199562273456    10.772154513496838    -4.714811938496667
    13.107709999155103    -7.187057185770573     4.211376836201346
    -7.504002651404769     4.539856035996785    -5.259371756565733
   2  63
     0.023013806668655     0.006907785401151     0.013422995841174
    -0.153924747768574    -0.014517882172060    -0.074352829513592