date Thu 6 Jan 2022 10:21:30 GMT
hostname MacBook-Pro.home
system Darwin MacBook-Pro.home 20.6.0 Darwin Kernel Version 20.6.0: Wed Jun 23 00:26:27 PDT 2021; root:xnu-7195.141.2~5/RELEASE_ARM64_T8101 arm64
user brunocamino
output data in /Users/brunocamino/Desktop/Imperial/crystal-code-tools/crystal-functions/examples/data/h_bulk.out
crystal executable in /Users/brunocamino/crystal
input data in /Users/brunocamino/Desktop/Imperial/crystal-code-tools/crystal-functions/examples/data/h_bulk.d12
temporary directory /Users/brunocamino/crystal/tmp
H CHAIN
CRYSTAL 
0 0 0
221
1.6839861384 1.6839861384 1.6839861384 90 90 90
1
1     0.0          0.0 0.0 
END
1 1
0 0  4  1.00 1.0
       18.7311370  0.01273
       2.82539370  0.09086
      0.640121700  0.37128
      0.161277800  0.64895
99 0
END
DFT
B3LYP
XXLGRID
ENDDFT
TOLINTEG
7 7 7 7 14
SHRINK
12 24
MAXCYCLE
200
FMIXING
70
DIIS
SAVEPRED
ENDSCF

         
 *******************************************************************************
 *                                                                             *
 *                               CRYSTAL17                                     *
 *                      public : 1.0.2 - March 1st, 2018                       *
 *                       HTTP://WWW.CRYSTAL.UNITO.IT                           *
 *                                                                             *
 *                              MAIN AUTHORS                                   *
 *                                                                             *
 *  R. DOVESI(1,11), V.R. SAUNDERS(2), C. ROETTI(1,11), R. ORLANDO(1,11),      *
 *  C.M. ZICOVICH-WILSON(1,3), F. PASCALE(4), B. CIVALLERI(1,11),              *
 *  K. DOLL(5), N.M. HARRISON(2,6), I.J. BUSH(7), Ph. D'ARCO(8),               *
 *  M. LLUNELL(9), M. CAUSA'(10), Y. NOEL(8), L. MASCHIO(1,11), A. ERBA(1,11)  *
 *  M. RE'RAT(14), S. CASASSA(1,11)                                            *
 *                                                                             *
 *        CONTRIBUTIONS TO THE CODE HAVE ALSO BEEN GIVEN BY                    *
 *                                                                             *
 *  M. FERRABONE(1,11), M. DE LA PIERRE(1,11), M. FERRERO(1,11),               *
 *  J. BAIMA(1,11), E. ALBANESE(1,11), M.F. PEINTINGER(12), R. BAST(13),       *
 *  B. KIRTMAN(15), V. LACIVITA(1,11), R. DEMICHELIS(1,16)                     *
 *  G. BRANDEBURG(17), S. SALUSTRO(1,11), G. SANSONE(1,11)                     *
 *  M.T. RUGGIERO(18)                                                          *
 *                                                                             *
 * (1) THEORETICAL CHEMISTRY GROUP - UNIVERSITA' DI TORINO - TORINO (ITALY)    *
 * (2) COMPUTATIONAL SCIENCE & ENGINEERING DEPARTMENT - STFC DARESBURY (UK)    *
 * (3) UNIVERSIDAD AUTONOMA DEL ESTADO DE MORELOS - CUERNAVACA (MEXICO)        *
 * (4) UNIVERSITE' DE LORRAINE - NANCY (FRANCE)                                *
 * (5) UNIVERSITAET STUTTGART- STUTTGART (GERMANY)                             *
 * (6) IMPERIAL COLLEGE - LONDON (UK)                                          *
 * (7) OXFORD E-RESEARCH CENTRE - OXFORD (UK)                                  *
 * (8) UPMC - SORBONNE UNIVERSITES - PARIS (FRANCE)                            *
 * (9) UNIVERSIDAD DE BARCELONA - BARCELONA (SPAIN)                            *
 *(10) UNIVERSITA' DI NAPOLI "FEDERICO II" - NAPOLI (ITALY)                    *
 *(11) NIS - NANOSTRUCTURED INTERFACES AND SURFACES - TORINO (ITALY)           *
 *(12) MPI FUER CHEMISCHE ENERGIEKONVERSION - MUELHEIM AN DER RUHR (GERMANY)   *
 *(13) UNIVERSITY OF TROMSO - TROMSO (NORWAY)                                  *
 *(14) UNIVERSITE' DE PAU ET DES PAYS DE L'ADOUR - PAU (FRANCE)                *
 *(15) UNIVERSITY OF CALIFORNIA SANTA BARBARA - SANTA BARBARA (USA)            *
 *(16) CURTIN UNIVERSITY - PERTH (AUSTRALIA)                                   *
 *(17) UNIVERSITY COLLEGE LONDON - LONDON (UK)                                 *
 *(18) CAMBRIDGE UNIVERSITY - CAMBRIDGE (UK)                                   *
 *                                                                             *
 *******************************************************************************
 EEEEEEEEEE STARTING  DATE 06 01 2022 TIME 10:21:30.1
 H CHAIN                                                                         

 CRYSTAL CALCULATION
 (INPUT ACCORDING TO THE INTERNATIONAL TABLES FOR X-RAY CRYSTALLOGRAPHY)
 CRYSTAL FAMILY                       :  CUBIC       
 CRYSTAL CLASS  (GROTH - 1921)        :  CUBIC HEXAKISOCTAHEDRAL              

 SPACE GROUP (CENTROSYMMETRIC)        :  P M 3 M         

 LATTICE PARAMETERS  (ANGSTROMS AND DEGREES) - CONVENTIONAL CELL
        A           B           C        ALPHA        BETA       GAMMA
     1.68399     1.68399     1.68399    90.00000    90.00000    90.00000


 NUMBER OF IRREDUCIBLE ATOMS IN THE CONVENTIONAL CELL:    1

 INPUT COORDINATES

 ATOM AT. N.              COORDINATES
   1   1     0.000000000000E+00  0.000000000000E+00  0.000000000000E+00

 *******************************************************************************

 << INFORMATION >>: FROM NOW ON, ALL COORDINATES REFER TO THE PRIMITIVE CELL

 *******************************************************************************

 LATTICE PARAMETERS  (ANGSTROMS AND DEGREES) - PRIMITIVE CELL
       A          B          C        ALPHA      BETA     GAMMA        VOLUME
    1.68399    1.68399    1.68399    90.00000  90.00000  90.00000      4.775464

 COORDINATES OF THE EQUIVALENT ATOMS (FRACTIONAL UNITS)

 N. ATOM EQUIV AT. N.          X                  Y                  Z

   1   1   1    1 H     0.00000000000E+00  0.00000000000E+00  0.00000000000E+00

 NUMBER OF SYMMETRY OPERATORS         :   48
 *******************************************************************************
 * GEOMETRY EDITING - INPUT COORDINATES ARE GIVEN IN ANGSTROM         
 *******************************************************************************

 GEOMETRY NOW FULLY CONSISTENT WITH THE GROUP

 GCALCO - MAX INDICES DIRECT LATTICE VECTOR    14    14    14
 NO.OF VECTORS CREATED 6999 STARS  120 RMAX    37.78739 BOHR

 GEOMETRY FOR WAVE FUNCTION - DIMENSIONALITY OF THE SYSTEM    3
 (NON PERIODIC DIRECTION: LATTICE PARAMETER FORMALLY SET TO 500)
 *******************************************************************************
 LATTICE PARAMETERS (ANGSTROMS AND DEGREES) - BOHR = 0.5291772083 ANGSTROM
 PRIMITIVE CELL - CENTRING CODE 1/0 VOLUME=     4.775464 - DENSITY  0.350 g/cm^3
         A              B              C           ALPHA      BETA       GAMMA 
     1.68398614     1.68398614     1.68398614    90.000000  90.000000  90.000000
 *******************************************************************************
 ATOMS IN THE ASYMMETRIC UNIT    1 - ATOMS IN THE UNIT CELL:    1
     ATOM                 X/A                 Y/B                 Z/C    
 *******************************************************************************
      1 T   1 H     0.000000000000E+00  0.000000000000E+00  0.000000000000E+00

 T = ATOM BELONGING TO THE ASYMMETRIC UNIT

 ****   48 SYMMOPS - TRANSLATORS IN FRACTIONAL UNITS
 **** MATRICES AND TRANSLATORS IN THE CRYSTALLOGRAPHIC REFERENCE FRAME
   V INV                    ROTATION MATRICES                   TRANSLATORS
   1   1  1.00  0.00  0.00  0.00  1.00  0.00  0.00  0.00  1.00  0.00  0.00  0.00
   2   2 -1.00  0.00  0.00  0.00 -1.00  0.00  0.00  0.00  1.00  0.00  0.00  0.00
   3   3  1.00  0.00  0.00  0.00 -1.00  0.00  0.00  0.00 -1.00  0.00  0.00  0.00
   4   4 -1.00  0.00  0.00  0.00  1.00  0.00  0.00  0.00 -1.00  0.00  0.00  0.00
   5   6  0.00  0.00  1.00  1.00  0.00  0.00  0.00  1.00  0.00  0.00  0.00  0.00
   6   5  0.00  1.00  0.00  0.00  0.00  1.00  1.00  0.00  0.00  0.00  0.00  0.00
   7   8  0.00  0.00 -1.00 -1.00  0.00  0.00  0.00  1.00  0.00  0.00  0.00  0.00
   8   7  0.00 -1.00  0.00  0.00  0.00  1.00 -1.00  0.00  0.00  0.00  0.00  0.00
   9  10  0.00  0.00  1.00 -1.00  0.00  0.00  0.00 -1.00  0.00  0.00  0.00  0.00
  10   9  0.00 -1.00  0.00  0.00  0.00 -1.00  1.00  0.00  0.00  0.00  0.00  0.00
  11  12  0.00  0.00 -1.00  1.00  0.00  0.00  0.00 -1.00  0.00  0.00  0.00  0.00
  12  11  0.00  1.00  0.00  0.00  0.00 -1.00 -1.00  0.00  0.00  0.00  0.00  0.00
  13  13  0.00 -1.00  0.00 -1.00  0.00  0.00  0.00  0.00 -1.00  0.00  0.00  0.00
  14  14  0.00  1.00  0.00  1.00  0.00  0.00  0.00  0.00 -1.00  0.00  0.00  0.00
  15  16  0.00  1.00  0.00 -1.00  0.00  0.00  0.00  0.00  1.00  0.00  0.00  0.00
  16  15  0.00 -1.00  0.00  1.00  0.00  0.00  0.00  0.00  1.00  0.00  0.00  0.00
  17  17 -1.00  0.00  0.00  0.00  0.00 -1.00  0.00 -1.00  0.00  0.00  0.00  0.00
  18  18  0.00  0.00 -1.00  0.00 -1.00  0.00 -1.00  0.00  0.00  0.00  0.00  0.00
  19  21  1.00  0.00  0.00  0.00  0.00  1.00  0.00 -1.00  0.00  0.00  0.00  0.00
  20  22  0.00  0.00 -1.00  0.00  1.00  0.00  1.00  0.00  0.00  0.00  0.00  0.00
  21  19  1.00  0.00  0.00  0.00  0.00 -1.00  0.00  1.00  0.00  0.00  0.00  0.00
  22  20  0.00  0.00  1.00  0.00  1.00  0.00 -1.00  0.00  0.00  0.00  0.00  0.00
  23  23 -1.00  0.00  0.00  0.00  0.00  1.00  0.00  1.00  0.00  0.00  0.00  0.00
  24  24  0.00  0.00  1.00  0.00 -1.00  0.00  1.00  0.00  0.00  0.00  0.00  0.00
  25  25 -1.00  0.00  0.00  0.00 -1.00  0.00  0.00  0.00 -1.00  0.00  0.00  0.00
  26  26  1.00  0.00  0.00  0.00  1.00  0.00  0.00  0.00 -1.00  0.00  0.00  0.00
  27  27 -1.00  0.00  0.00  0.00  1.00  0.00  0.00  0.00  1.00  0.00  0.00  0.00
  28  28  1.00  0.00  0.00  0.00 -1.00  0.00  0.00  0.00  1.00  0.00  0.00  0.00
  29  30  0.00  0.00 -1.00 -1.00  0.00  0.00  0.00 -1.00  0.00  0.00  0.00  0.00
  30  29  0.00 -1.00  0.00  0.00  0.00 -1.00 -1.00  0.00  0.00  0.00  0.00  0.00
  31  32  0.00  0.00  1.00  1.00  0.00  0.00  0.00 -1.00  0.00  0.00  0.00  0.00
  32  31  0.00  1.00  0.00  0.00  0.00 -1.00  1.00  0.00  0.00  0.00  0.00  0.00
  33  34  0.00  0.00 -1.00  1.00  0.00  0.00  0.00  1.00  0.00  0.00  0.00  0.00
  34  33  0.00  1.00  0.00  0.00  0.00  1.00 -1.00  0.00  0.00  0.00  0.00  0.00
  35  36  0.00  0.00  1.00 -1.00  0.00  0.00  0.00  1.00  0.00  0.00  0.00  0.00
  36  35  0.00 -1.00  0.00  0.00  0.00  1.00  1.00  0.00  0.00  0.00  0.00  0.00
  37  37  0.00  1.00  0.00  1.00  0.00  0.00  0.00  0.00  1.00  0.00  0.00  0.00
  38  38  0.00 -1.00  0.00 -1.00  0.00  0.00  0.00  0.00  1.00  0.00  0.00  0.00
  39  40  0.00 -1.00  0.00  1.00  0.00  0.00  0.00  0.00 -1.00  0.00  0.00  0.00
  40  39  0.00  1.00  0.00 -1.00  0.00  0.00  0.00  0.00 -1.00  0.00  0.00  0.00
  41  41  1.00  0.00  0.00  0.00  0.00  1.00  0.00  1.00  0.00  0.00  0.00  0.00
  42  42  0.00  0.00  1.00  0.00  1.00  0.00  1.00  0.00  0.00  0.00  0.00  0.00
  43  45 -1.00  0.00  0.00  0.00  0.00 -1.00  0.00  1.00  0.00  0.00  0.00  0.00
  44  46  0.00  0.00  1.00  0.00 -1.00  0.00 -1.00  0.00  0.00  0.00  0.00  0.00
  45  43 -1.00  0.00  0.00  0.00  0.00  1.00  0.00 -1.00  0.00  0.00  0.00  0.00
  46  44  0.00  0.00 -1.00  0.00 -1.00  0.00  1.00  0.00  0.00  0.00  0.00  0.00
  47  47  1.00  0.00  0.00  0.00  0.00 -1.00  0.00 -1.00  0.00  0.00  0.00  0.00
  48  48  0.00  0.00 -1.00  0.00  1.00  0.00 -1.00  0.00  0.00  0.00  0.00  0.00

 DIRECT LATTICE VECTORS CARTESIAN COMPONENTS (ANGSTROM)
          X                    Y                    Z
   0.168398613840E+01   0.000000000000E+00   0.000000000000E+00
   0.000000000000E+00   0.168398613840E+01   0.000000000000E+00
   0.000000000000E+00   0.000000000000E+00   0.168398613840E+01


 CARTESIAN COORDINATES - PRIMITIVE CELL
 *******************************************************************************
 *      ATOM          X(ANGSTROM)         Y(ANGSTROM)         Z(ANGSTROM)
 *******************************************************************************
    1     1 H     0.000000000000E+00  0.000000000000E+00  0.000000000000E+00

 *******************************************************************************
 LOCAL ATOMIC FUNCTIONS BASIS SET
 *******************************************************************************
   ATOM   X(AU)   Y(AU)   Z(AU)  N. TYPE  EXPONENT  S COEF   P COEF   D/F/G COEF
 *******************************************************************************
   1 H    0.000   0.000   0.000
                                  1 S  
                                         1.873E+01 1.273E-02 0.000E+00 0.000E+00
                                         2.825E+00 9.086E-02 0.000E+00 0.000E+00
                                         6.401E-01 3.713E-01 0.000E+00 0.000E+00
                                         1.613E-01 6.490E-01 0.000E+00 0.000E+00
 INFORMATION **** SET_MPP **** PCRYSTAL CALCULATION
 INFORMATION **** READM2 **** NEW DEFAULT: FOCK/KS MATRIX MIXING SET TO 30 %
 INFORMATION **** READM2 **** NEW DEFAULT: FULL DIRECT SCF MODE
 INFORMATION **** READM2 **** NEW DEFAULT: COULOMB BIPOLAR BUFFER SET TO 32 Mb
 INFORMATION **** READM2 **** NEW DEFAULT: EXCHANGE BIPOLAR BUFFER SET TO 32 Mb

 *******************************************************************************
 NEW DEFAULT: DFT INTEGRATION GRID INCREASED TO XLGRID
 NEW DEFAULT: DIIS ACCELERATOR ACTIVE
 USE KEYWORD NODIIS TO TURN IT OFF
 *******************************************************************************

 INFORMATION **** TOLINTEG **** COULOMB AND EXCHANGE SERIES TOLERANCES MODIFIED
 INFORMATION **** MAXCYCLE **** MAX NUMBER OF SCF CYCLES SET TO         200
 INFORMATION **** DIIS **** DIIS FOR SCF ACTIVE
 INFORMATION **** DIIS **** LEVEL SHIFTER DISABLED
 INFORMATION **** SAVEPRED **** WRITING REDUCIBLE DENSITY MATRIX IN UNIT 13
 *******************************************************************************
 N. OF ATOMS PER CELL         1  COULOMB OVERLAP TOL         (T1) 10**   -7
 NUMBER OF SHELLS             1  COULOMB PENETRATION TOL     (T2) 10**   -7
 NUMBER OF AO                 1  EXCHANGE OVERLAP TOL        (T3) 10**   -7
 N. OF ELECTRONS PER CELL     1  EXCHANGE PSEUDO OVP (F(G))  (T4) 10**   -7
 CORE ELECTRONS PER CELL      0  EXCHANGE PSEUDO OVP (P(G))  (T5) 10**  -14
 N. OF SYMMETRY OPERATORS    48  POLE ORDER IN MONO ZONE                  4
 *******************************************************************************
 TYPE OF CALCULATION :  RESTRICTED CLOSED SHELL
 KOHN-SHAM HAMILTONIAN

 (EXCHANGE)[CORRELATION] FUNCTIONAL:(BECKE 88)[LEE-YANG-PARR]

 NON-LOCAL WEIGHTING FACTOR (EXCHANGE) =           0.9000
 NON-LOCAL WEIGHTING FACTOR [CORRELATION] =        0.8100

 HYBRID EXCHANGE - PERCENTAGE OF FOCK EXCHANGE    20.0000

 CAPPA:IS1 12;IS2 12;IS3 12; K PTS MONK NET  84; SYMMOPS:K SPACE  48;G SPACE  48

 *******************************************************************************
 MAX NUMBER OF SCF CYCLES     200  CONVERGENCE ON DELTAP        10**-16
 WEIGHT OF F(I) IN F(I+1)      70% CONVERGENCE ON ENERGY        10**- 6
 SHRINK. FACT.(MONKH.)   12 12 12  NUMBER OF K POINTS IN THE IBZ     84
 SHRINKING FACTOR(GILAT NET)   24  NUMBER OF K POINTS(GILAT NET)    455
 *******************************************************************************
 *** K POINTS COORDINATES (OBLIQUE COORDINATES IN UNITS OF IS = 12)
   1-R(  0  0  0)   2-C(  1  0  0)   3-C(  2  0  0)   4-C(  3  0  0)
   5-C(  4  0  0)   6-C(  5  0  0)   7-R(  6  0  0)   8-C(  1  1  0)
   9-C(  2  1  0)  10-C(  3  1  0)  11-C(  4  1  0)  12-C(  5  1  0)
  13-C(  6  1  0)  14-C(  2  2  0)  15-C(  3  2  0)  16-C(  4  2  0)
  17-C(  5  2  0)  18-C(  6  2  0)  19-C(  3  3  0)  20-C(  4  3  0)
  21-C(  5  3  0)  22-C(  6  3  0)  23-C(  4  4  0)  24-C(  5  4  0)
  25-C(  6  4  0)  26-C(  5  5  0)  27-C(  6  5  0)  28-R(  6  6  0)
  29-C(  1  1  1)  30-C(  2  1  1)  31-C(  3  1  1)  32-C(  4  1  1)
  33-C(  5  1  1)  34-C(  6  1  1)  35-C(  2  2  1)  36-C(  3  2  1)
  37-C(  4  2  1)  38-C(  5  2  1)  39-C(  6  2  1)  40-C(  3  3  1)
  41-C(  4  3  1)  42-C(  5  3  1)  43-C(  6  3  1)  44-C(  4  4  1)
  45-C(  5  4  1)  46-C(  6  4  1)  47-C(  5  5  1)  48-C(  6  5  1)
  49-C(  6  6  1)  50-C(  2  2  2)  51-C(  3  2  2)  52-C(  4  2  2)
  53-C(  5  2  2)  54-C(  6  2  2)  55-C(  3  3  2)  56-C(  4  3  2)
  57-C(  5  3  2)  58-C(  6  3  2)  59-C(  4  4  2)  60-C(  5  4  2)
  61-C(  6  4  2)  62-C(  5  5  2)  63-C(  6  5  2)  64-C(  6  6  2)
  65-C(  3  3  3)  66-C(  4  3  3)  67-C(  5  3  3)  68-C(  6  3  3)
  69-C(  4  4  3)  70-C(  5  4  3)  71-C(  6  4  3)  72-C(  5  5  3)
  73-C(  6  5  3)  74-C(  6  6  3)  75-C(  4  4  4)  76-C(  5  4  4)
  77-C(  6  4  4)  78-C(  5  5  4)  79-C(  6  5  4)  80-C(  6  6  4)
  81-C(  5  5  5)  82-C(  6  5  5)  83-C(  6  6  5)  84-R(  6  6  6)

 DIRECT LATTICE VECTORS COMPON. (A.U.)     RECIP. LATTICE VECTORS COMPON. (A.U.) 
        X            Y            Z              X            Y            Z
    3.1822726    0.0000000    0.0000000      1.9744334    0.0000000    0.0000000
    0.0000000    3.1822726    0.0000000      0.0000000    1.9744334    0.0000000
    0.0000000    0.0000000    3.1822726      0.0000000    0.0000000    1.9744334

 DISK SPACE FOR EIGENVECTORS (FTN 10)         164 REALS

 SYMMETRY ADAPTION OF THE BLOCH FUNCTIONS ENABLED
 TTTTTTTTTTTTTTTTTTTTTTTTTTTTTT gordsh1     TELAPSE        0.01 TCPU        0.01

 MATRIX SIZE: P(G)    1021, F(G)     365, P(G) IRR      45, F(G) IRR      21
 MAX G-VECTOR INDEX FOR 1- AND 2-ELECTRON INTEGRALS1021

 TTTTTTTTTTTTTTTTTTTTTTTTTTTTTT INPUT       TELAPSE        0.01 TCPU        0.01

 NEIGHBORS OF THE NON-EQUIVALENT ATOMS

 N = NUMBER OF NEIGHBORS AT DISTANCE R
    ATOM  N     R/ANG      R/AU   NEIGHBORS (ATOM LABELS AND CELL INDICES)
   1 H    6     1.6840     3.1823    1 H    1 0 0    1 H   -1 0 0    1 H    0 1 0
                                     1 H    0-1 0    1 H    0 0 1    1 H    0 0-1
   1 H   12     2.3815     4.5004    1 H    1 1 0    1 H   -1-1 0    1 H    1 0 1
                                     1 H   -1 0-1    1 H    1 0-1    1 H   -1 0 1
                                     1 H    1-1 0    1 H   -1 1 0    1 H    0 1 1
                                     1 H    0-1-1    1 H    0 1-1    1 H    0-1 1
   1 H    8     2.9167     5.5119    1 H    1 1 1    1 H   -1-1-1    1 H    1 1-1
                                     1 H   -1-1 1    1 H    1-1 1    1 H   -1 1-1
                                     1 H    1-1-1    1 H   -1 1 1
   1 H    6     3.3680     6.3645    1 H    2 0 0    1 H   -2 0 0    1 H    0 2 0
                                     1 H    0-2 0    1 H    0 0 2    1 H    0 0-2
   1 H   24     3.7655     7.1158    1 H    2 1 0    1 H   -2-1 0    1 H    2 0 1
                                     1 H   -2 0-1    1 H    2 0-1    1 H   -2 0 1
                                     1 H    2-1 0    1 H   -2 1 0    1 H    1 2 0
                                     1 H   -1-2 0    1 H    1 0 2    1 H   -1 0-2
                                     1 H    1 0-2    1 H   -1 0 2    1 H    1-2 0
                                     1 H   -1 2 0    1 H    0 2 1    1 H    0-2-1
                                     1 H    0 2-1    1 H    0-2 1    1 H    0 1 2
                                     1 H    0-1-2    1 H    0 1-2    1 H    0-1 2
   1 H   24     4.1249     7.7949    1 H    2 1 1    1 H   -2-1-1    1 H    2 1-1
                                     1 H   -2-1 1    1 H    2-1 1    1 H   -2 1-1
                                     1 H    2-1-1    1 H   -2 1 1    1 H    1 2 1
                                     1 H   -1-2-1    1 H    1 2-1    1 H   -1-2 1
                                     1 H    1 1 2    1 H   -1-1-2    1 H    1 1-2
                                     1 H   -1-1 2    1 H    1-1 2    1 H   -1 1-2
                                     1 H    1-1-2    1 H   -1 1 2    1 H    1-2 1
                                     1 H   -1 2-1    1 H    1-2-1    1 H   -1 2 1


 THERE ARE NO SYMMETRY ALLOWED DIRECTIONS
 TTTTTTTTTTTTTTTTTTTTTTTTTTTTTT SYMM        TELAPSE        0.01 TCPU        0.01
 TTTTTTTTTTTTTTTTTTTTTTTTTTTTTT INT_SCREEN  TELAPSE        0.01 TCPU        0.01
 INFORMATION **** EXCBUF **** EXCH. BIPO BUFFER: WORDS USED =        9855

 DFT PARAMETERS

     ATOM       ELECTRONS   NET CHARGE   R(ANGSTROM)
   1   1  H       1.0000      0.0000     1.11000000

 SIZE OF GRID=       1039
 TTTTTTTTTTTTTTTTTTTTTTTTTTTTTT MAKE_GRID2  TELAPSE        0.24 TCPU        0.24
 BECKE WEIGHT FUNCTION
 RADSAFE =     2.00
 TOLERANCES - DENSITY:10**- 6; POTENTIAL:10**- 9; GRID WGT:10**-14

 RADIAL INTEGRATION  - INTERVALS (POINTS,UPPER LIMIT):            1( 99,  4.0*R)

 ANGULAR INTEGRATION - INTERVALS (ACCURACY LEVEL [N. POINTS] UPPER LIMIT):
  1(  6[ 146]   0.2)  2( 11[ 302]   0.5)  3( 14[ 590]   0.9)  4( 18[1454]   3.5)
  5( 14[ 590]9999.0)
 TTTTTTTTTTTTTTTTTTTTTTTTTTTTTT INT_CALC    TELAPSE        0.25 TCPU        0.25
 EEEEEEEEEE INT_CALC TERMINATION  DATE 06 01 2022 TIME 10:21:30.3

 *******************************************************************************
 H CHAIN                                                                         
 CRYSTAL - SCF - TYPE OF CALCULATION :  RESTRICTED CLOSED SHELL
 *******************************************************************************

 CAPPA:IS1 12;IS2 12;IS3 12; K PTS MONK NET  84; SYMMOPS:K SPACE  48;G SPACE  48

 TTTTTTTTTTTTTTTTTTTTTTTTTTTTTT SDIK        TELAPSE        0.25 TCPU        0.25

 AAAAAAAAAAAAAAAAAAAAAAAAAAAAAAAAAAAAAAAAAAAAAAAAAAAAAAAAAAAAAAAAAAAAAAAAAAAAAAA
         ATOMIC WAVEFUNCTION(S)


 NUCLEAR CHARGE  1.0  SYMMETRY SPECIES            S
 N. ELECTRONS    1.0  NUMBER OF PRIMITIVE GTOS    4
                      NUMBER OF CONTRACTED GTOS   1
                      NUMBER OF CLOSED SHELLS     0
                      OPEN SHELL OCCUPATION       1

  ZNUC SCFIT  TOTAL HF ENERGY   KINETIC ENERGY   VIRIAL THEOREM ACCURACY
   1.0   1   -4.986545261E-01  5.099614011E-01 -1.977827979E+00  0.0E+00

 AAAAAAAAAAAAAAAAAAAAAAAAAAAAAAAAAAAAAAAAAAAAAAAAAAAAAAAAAAAAAAAAAAAAAAAAAAAAAAA

 CHARGE NORMALIZATION FACTOR   1.00000000
 TOTAL ATOMIC CHARGES:
   1.0000000
 TTTTTTTTTTTTTTTTTTTTTTTTTTTTTT MOQGAD      TELAPSE        0.25 TCPU        0.25
 TTTTTTTTTTTTTTTTTTTTTTTTTTTTTT SHELLXN     TELAPSE        0.71 TCPU        0.70
 TTTTTTTTTTTTTTTTTTTTTTTTTTTTTT MONMO3      TELAPSE        0.71 TCPU        0.71
 NUMERICALLY INTEGRATED DENSITY      1.0000019486
 TTTTTTTTTTTTTTTTTTTTTTTTTTTTTT NUMDFT      TELAPSE        0.73 TCPU        0.73
 CYC   0 ETOT(AU) -5.004449885668E-01 DETOT -5.00E-01 tst  0.00E+00 PX  1.00E+00
 TTTTTTTTTTTTTTTTTTTTTTTTTTTTTT DIIS        TELAPSE        0.74 TCPU        0.73
 TTTTTTTTTTTTTTTTTTTTTTTTTTTTTT FDIK        TELAPSE        0.74 TCPU        0.73
 POSSIBLY CONDUCTING STATE - EFERMI(AU) -1.7193931E-01 (RES. CHARGE  8.74E-10;IT.  8)
 TTTTTTTTTTTTTTTTTTTTTTTTTTTTTT PDIG        TELAPSE        0.74 TCPU        0.73
 CHARGE NORMALIZATION FACTOR   1.00000000
 TOTAL ATOMIC CHARGES:
   1.0000000
 TTTTTTTTTTTTTTTTTTTTTTTTTTTTTT MOQGAD      TELAPSE        0.74 TCPU        0.73
 TTTTTTTTTTTTTTTTTTTTTTTTTTTTTT SHELLXN     TELAPSE        1.20 TCPU        1.19
 TTTTTTTTTTTTTTTTTTTTTTTTTTTTTT MONMO3      TELAPSE        1.20 TCPU        1.19
 NUMERICALLY INTEGRATED DENSITY      1.0000019035
 TTTTTTTTTTTTTTTTTTTTTTTTTTTTTT NUMDFT      TELAPSE        1.24 TCPU        1.23
 CYC   1 ETOT(AU) -5.233640424315E-01 DETOT -2.29E-02 tst  0.00E+00 PX  1.00E+00
 TTTTTTTTTTTTTTTTTTTTTTTTTTTTTT DIIS        TELAPSE        1.24 TCPU        1.23
 DIIS TEST: 0.00000E+00 AT SCF   CYCLE   1 - MIX   70 %
 TTTTTTTTTTTTTTTTTTTTTTTTTTTTTT FDIK        TELAPSE        1.24 TCPU        1.23
 POSSIBLY CONDUCTING STATE - EFERMI(AU) -1.7509216E-01 (RES. CHARGE  2.11E-10;IT.  6)
 TTTTTTTTTTTTTTTTTTTTTTTTTTTTTT PDIG        TELAPSE        1.25 TCPU        1.24
 CHARGE NORMALIZATION FACTOR   1.00000000
 TOTAL ATOMIC CHARGES:
   1.0000000
 TTTTTTTTTTTTTTTTTTTTTTTTTTTTTT MOQGAD      TELAPSE        1.25 TCPU        1.24
 TTTTTTTTTTTTTTTTTTTTTTTTTTTTTT SHELLXN     TELAPSE        1.70 TCPU        1.69
 +++ ENERGIES IN A.U. +++
 ::: EXT EL-POLE                                  -1.9114373284152E+01
 ::: EXT EL-SPHEROPOLE                             9.1453366673655E-02
 ::: BIELET ZONE E-E                               1.8995134143459E+01
 ::: TOTAL E-E                                    -2.7785774019235E-02
 ::: TOTAL E-N + N-E                              -2.6564665580024E-01
 ::: TOTAL N-N                                    -4.4579737403309E-01
 ::: KINETIC ENERGY                                4.6272088999131E-01
 ::: PSEUDO TOTAL   ENERGY                        -2.7650891386125E-01
 ::: VIRIAL COEFFICIENT                            1.2518999844968E+00
 TTTTTTTTTTTTTTTTTTTTTTTTTTTTTT MONMO3      TELAPSE        1.70 TCPU        1.69
 NUMERICALLY INTEGRATED DENSITY      1.0000019028
 TTTTTTTTTTTTTTTTTTTTTTTTTTTTTT NUMDFT      TELAPSE        1.74 TCPU        1.74
 CYC   2 ETOT(AU) -5.233682905442E-01 DETOT -4.25E-06 tst  0.00E+00 PX  1.00E+00

 == SCF ENDED - CONVERGENCE ON TESTER      E(AU) -5.2336829054418E-01 CYCLES   2


 ENERGY EXPRESSION=HARTREE+FOCK EXCH*0.20000+(BECKE      EXCH)*0.80000+LYP        CORR


 TOTAL ENERGY(DFT)(AU)(  2) -5.2336829054418E-01 DE-4.2E-06 tester 0.0E+00
 TTTTTTTTTTTTTTTTTTTTTTTTTTTTTT EDFT        TELAPSE        1.74 TCPU        1.74
 EIGENVECTORS IN FORTRAN UNIT  8
 TTTTTTTTTTTTTTTTTTTTTTTTTTTTTT END         TELAPSE        1.75 TCPU        1.74
 EEEEEEEEEE TERMINATION  DATE 06 01 2022 TIME 10:21:31.8
Thu  6 Jan 2022 10:21:31 GMT
Contents of temporary directory:
total 904
-rw-r--r--  1 brunocamino  admin     352  6 Jan 10:21 diis_Fg
-rw-r--r--  1 brunocamino  admin       0  6 Jan 10:21 diis_Fia1
-rw-r--r--  1 brunocamino  admin      16  6 Jan 10:21 diis_Fia2
-rw-r--r--  1 brunocamino  admin       0  6 Jan 10:21 diis_Sk
-rw-r--r--  1 brunocamino  admin    1984  6 Jan 10:21 fort.10
-rw-r--r--  1 brunocamino  admin     176  6 Jan 10:21 fort.11
-rw-r--r--  1 brunocamino  admin    8176  6 Jan 10:21 fort.13
-rw-r--r--  1 brunocamino  admin    6048  6 Jan 10:21 fort.61
-rw-r--r--  1 brunocamino  admin    1984  6 Jan 10:21 fort.8
-rw-r--r--  1 brunocamino  admin  102704  6 Jan 10:21 fort.9
-rw-r--r--  1 brunocamino  admin     784  6 Jan 10:21 fort.95
-rw-r--r--  1 brunocamino  admin  259117  6 Jan 10:21 fort.98
wave function binary file /Users/brunocamino/Desktop/Imperial/crystal-code-tools/crystal-functions/examples/data/h_bulk.f9
file fort.98 saved as /Users/brunocamino/Desktop/Imperial/crystal-code-tools/crystal-functions/examples/data/h_bulk.f98
file fort.13 saved as /Users/brunocamino/Desktop/Imperial/crystal-code-tools/crystal-functions/examples/data/h_bulk.f13
temporary directory /Users/brunocamino/crystal/tmp removed
