--------------------------------------------------------------------------
WARNING: No preset parameters were found for the device that Open MPI
detected:

  Local host:            t21node160
  Device name:           mlx5_0
  Device vendor ID:      0x02c9
  Device vendor part ID: 4123

Default device parameters will be used, which may result in lower
performance.  You can edit any of the files specified by the
btl_openib_device_param_files MCA parameter to set values for your
device.

NOTE: You can turn off this warning by setting the MCA parameter
      btl_openib_warn_no_device_params_found to 0.
--------------------------------------------------------------------------
 PROCESS            0  OF            1  WORKING

         
 *******************************************************************************
 *                                                                             *
 *                               CRYSTAL17                                     *
 *                      public : 1.0.1 - Feb 1st, 2017                         *
 *                       HTTP://WWW.CRYSTAL.UNITO.IT                           *
 *                                                                             *
 *                              MAIN AUTHORS                                   *
 *                                                                             *
 *  R. DOVESI(1,11), V.R. SAUNDERS(2), C. ROETTI(1,11), R. ORLANDO(1,11),      *
 *  C.M. ZICOVICH-WILSON(1,3), F. PASCALE(4), B. CIVALLERI(1,11),              *
 *  K. DOLL(5), N.M. HARRISON(2,6), I.J. BUSH(7), Ph. D'ARCO(8),               *
 *  M. LLUNELL(9), M. CAUSA'(10), Y. NOEL(8), L. MASCHIO(1,11), A. ERBA(1,11)  *
 *  M. RE'RAT(14), S. CASASSA(1,11)                                            *
 *                                                                             *
 *        CONTRIBUTIONS TO THE CODE HAVE ALSO BEEN GIVEN BY                    *
 *                                                                             *
 *  M. FERRABONE(1,11), M. DE LA PIERRE(1,11), M. FERRERO(1,11),               *
 *  J. BAIMA(1,11), E. ALBANESE(1,11), M.F. PEINTINGER(12), R. BAST(13),       *
 *  B. KIRTMAN(15), V. LACIVITA(1,11), R. DEMICHELIS(1,16)                     *
 *  G. BRANDEBURG(17), S. SALUSTRO(1,11), G. SANSONE(1,11)                     *
 *  M.T. RUGGIERO(18)                                                          *
 *                                                                             *
 * (1) THEORETICAL CHEMISTRY GROUP - UNIVERSITA' DI TORINO - TORINO (ITALY)    *

 * (2) COMPUTATIONAL SCIENCE & ENGINEERING DEPARTMENT - STFC DARESBURY (UK)    *
 * (3) UNIVERSIDAD AUTONOMA DEL ESTADO DE MORELOS - CUERNAVACA (MEXICO)        *
 * (4) UNIVERSITE' DE LORRAINE - NANCY (FRANCE)                                *
 * (5) UNIVERSITAET STUTTGART- STUTTGART (GERMANY)                             *
 * (6) IMPERIAL COLLEGE - LONDON (UK)                                          *
 * (7) OXFORD E-RESEARCH CENTRE - OXFORD (UK)                                  *
 * (8) UPMC - SORBONNE UNIVERSITES - PARIS (FRANCE)                            *
 * (9) UNIVERSIDAD DE BARCELONA - BARCELONA (SPAIN)                            *
 *(10) UNIVERSITA' DI NAPOLI "FEDERICO II" - NAPOLI (ITALY)                    *
 *(11) NIS - NANOSTRUCTURED INTERFACES AND SURFACES - TORINO (ITALY)           *
 *(12) MPI FUER CHEMISCHE ENERGIEKONVERSION - MUELHEIM AN DER RUHR (GERMANY)   *
 *(13) UNIVERSITY OF TROMSO - TROMSO (NORWAY)                                  *
 *(14) UNIVERSITE' DE PAU ET DES PAYS DE L'ADOUR - PAU (FRANCE)                *
 *(15) UNIVERSITY OF CALIFORNIA SANTA BARBARA - SANTA BARBARA (USA)            *
 *(16) CURTIN UNIVERSITY - PERTH (AUSTRALIA)                                   *
 *(17) UNIVERSITY COLLEGE LONDON - LONDON (UK)                                 *
 *(18) CAMBRIDGE UNIVERSITY - CAMBRIDGE (UK)                                   *
 *                                                                             *
 *******************************************************************************
 EEEEEEEEEE STARTING  DATE 10 02 2022 TIME 14:52:11.5
 Prova LTS cubico                                                                

 CRYSTAL CALCULATION
 (INPUT ACCORDING TO THE INTERNATIONAL TABLES FOR X-RAY CRYSTALLOGRAPHY)
 CRYSTAL FAMILY                       :  CUBIC       
 CRYSTAL CLASS  (GROTH - 1921)        :  CUBIC HEXAKISOCTAHEDRAL              

 SPACE GROUP (CENTROSYMMETRIC)        :  F M 3 M         

 LATTICE PARAMETERS  (ANGSTROMS AND DEGREES) - CONVENTIONAL CELL
        A           B           C        ALPHA        BETA       GAMMA
     5.08550     5.08550     5.08550    90.00000    90.00000    90.00000


 NUMBER OF IRREDUCIBLE ATOMS IN THE CONVENTIONAL CELL:    2

 INPUT COORDINATES

 ATOM AT. N.              COORDINATES
   1  22     0.000000000000E+00  0.000000000000E+00  0.000000000000E+00
   2  16     5.000000000000E-01  5.000000000000E-01  5.000000000000E-01

 *******************************************************************************

 << INFORMATION >>: FROM NOW ON, ALL COORDINATES REFER TO THE PRIMITIVE CELL

 *******************************************************************************

 LATTICE PARAMETERS  (ANGSTROMS AND DEGREES) - PRIMITIVE CELL
       A          B          C        ALPHA      BETA     GAMMA        VOLUME
    3.59599    3.59599    3.59599    60.00000  60.00000  60.00000     32.880695

 COORDINATES OF THE EQUIVALENT ATOMS (FRACTIONAL UNITS)

 N. ATOM EQUIV AT. N.          X                  Y                  Z

   1   1   1   22 TI    0.00000000000E+00  0.00000000000E+00  0.00000000000E+00

   2   2   1   16 S    -5.00000000000E-01 -5.00000000000E-01 -5.00000000000E-01

 NUMBER OF SYMMETRY OPERATORS         :   48
 *******************************************************************************
 * GEOMETRY EDITING - INPUT COORDINATES ARE GIVEN IN ANGSTROM         
 *******************************************************************************

 GEOMETRY NOW FULLY CONSISTENT WITH THE GROUP

 GCALCO - MAX INDICES DIRECT LATTICE VECTOR    14    14    14
 NO.OF VECTORS CREATED 6999 STARS  105 RMAX    38.05640 BOHR

 *******************************************************************************
 * SUPERCELL OPTION
 *******************************************************************************


        EXPANSION MATRIX OF PRIMITIVE CELL
 E1     3.000     0.000     0.000
 E2     0.000     3.000     0.000
 E3     0.000     0.000     3.000

 NUMBER OF ATOMS PER SUPERCELL    54

        DIRECT LATTICE VECTORS COMPONENTS (ANGSTROM)
 B1     0.000     7.628     7.628
 B2     7.628     0.000     7.628
 B3     7.628     7.628     0.000

 LATTICE PARAMETERS  (ANGSTROM AND DEGREES)
       A          B          C         ALPHA     BETA     GAMMA        VOLUME
   10.78797   10.78797   10.78797    60.00000  60.00000  60.00000    887.778757


 **** ATOMS BELONGING TO THE SUPERCELL
 LABEL AT.NO.      COORDINATES (ANGSTROM AND FRACTIONAL)
     1    22     0.0000     0.0000     0.0000     0.0000     0.0000     0.0000
     2    22     2.5428     2.5428     0.0000     0.0000     0.0000     0.3333
     3    22    -2.5427    -2.5427     0.0000     0.0000     0.0000    -0.3333
     4    22     2.5428     0.0000     2.5428     0.0000     0.3333     0.0000
     5    22     5.0855     2.5427     2.5428     0.0000     0.3333     0.3333
     6    22     0.0000    -2.5427     2.5428     0.0000     0.3333    -0.3333
     7    22    -2.5427     0.0000    -2.5427     0.0000    -0.3333     0.0000
     8    22     0.0000     2.5428    -2.5427     0.0000    -0.3333     0.3333
     9    22    -5.0855    -2.5428    -2.5427     0.0000    -0.3333    -0.3333
    10    22     0.0000     2.5428     2.5428     0.3333     0.0000     0.0000
    11    22     2.5427     5.0855     2.5428     0.3333     0.0000     0.3333
    12    22    -2.5427     0.0000     2.5428     0.3333     0.0000    -0.3333
    13    22     2.5428     2.5428     5.0855     0.3333     0.3333     0.0000
    14    22     5.0855     5.0855     5.0855     0.3333     0.3333     0.3333
    15    22     0.0000     0.0000     5.0855     0.3333     0.3333    -0.3333
    16    22    -2.5427     2.5427     0.0000     0.3333    -0.3333     0.0000
    17    22     0.0000     5.0855     0.0000     0.3333    -0.3333     0.3333
    18    22    -5.0855     0.0000     0.0000     0.3333    -0.3333    -0.3333
    19    22     0.0000    -2.5427    -2.5427    -0.3333     0.0000     0.0000
    20    22     2.5428     0.0000    -2.5427    -0.3333     0.0000     0.3333
    21    22    -2.5428    -5.0855    -2.5427    -0.3333     0.0000    -0.3333
    22    22     2.5427    -2.5427     0.0000    -0.3333     0.3333     0.0000
    23    22     5.0855     0.0000     0.0000    -0.3333     0.3333     0.3333
    24    22     0.0000    -5.0855     0.0000    -0.3333     0.3333    -0.3333
    25    22    -2.5427    -2.5427    -5.0855    -0.3333    -0.3333     0.0000
    26    22     0.0000     0.0000    -5.0855    -0.3333    -0.3333     0.3333
    27    22    -5.0855    -5.0855    -5.0855    -0.3333    -0.3333    -0.3333
    28    16     2.5428     2.5428     2.5428     0.1667     0.1667     0.1667
    29    16    -2.5427    -2.5427     2.5428     0.1667     0.1667    -0.5000
    30    16    -0.0000    -0.0000     2.5428     0.1667     0.1667    -0.1667
    31    16    -2.5427     2.5427    -2.5427     0.1667    -0.5000     0.1667
    32    16    -7.6282    -2.5427    -2.5427     0.1667    -0.5000    -0.5000
    33    16    -5.0855     0.0000    -2.5427     0.1667    -0.5000    -0.1667
    34    16     0.0000     2.5428    -0.0000     0.1667    -0.1667     0.1667
    35    16    -5.0855    -2.5427     0.0000     0.1667    -0.1667    -0.5000
    36    16    -2.5427     0.0000     0.0000     0.1667    -0.1667    -0.1667
    37    16     2.5427    -2.5427    -2.5427    -0.5000     0.1667     0.1667
    38    16    -2.5427    -7.6282    -2.5427    -0.5000     0.1667    -0.5000
    39    16     0.0000    -5.0855    -2.5427    -0.5000     0.1667    -0.1667
    40    16    -2.5427    -2.5427    -7.6282    -0.5000    -0.5000     0.1667
    41    16    -7.6282    -7.6282    -7.6282    -0.5000    -0.5000    -0.5000
    42    16    -5.0855    -5.0855    -7.6282    -0.5000    -0.5000    -0.1667
    43    16     0.0000    -2.5427    -5.0855    -0.5000    -0.1667     0.1667
    44    16    -5.0855    -7.6282    -5.0855    -0.5000    -0.1667    -0.5000
    45    16    -2.5428    -5.0855    -5.0855    -0.5000    -0.1667    -0.1667
    46    16     2.5428     0.0000    -0.0000    -0.1667     0.1667     0.1667
    47    16    -2.5427    -5.0855     0.0000    -0.1667     0.1667    -0.5000
    48    16     0.0000    -2.5427     0.0000    -0.1667     0.1667    -0.1667
    49    16    -2.5427     0.0000    -5.0855    -0.1667    -0.5000     0.1667
    50    16    -7.6282    -5.0855    -5.0855    -0.1667    -0.5000    -0.5000
    51    16    -5.0855    -2.5428    -5.0855    -0.1667    -0.5000    -0.1667
    52    16     0.0000     0.0000    -2.5427    -0.1667    -0.1667     0.1667
    53    16    -5.0855    -5.0855    -2.5427    -0.1667    -0.1667    -0.5000
    54    16    -2.5427    -2.5427    -2.5427    -0.1667    -0.1667    -0.1667

 **************************** SUPERCELL GENERATED ****************************

 CONSTRUCTION OF SUPERCELL PRODUCT GROUP


     SUPERCELL MATRIX

  3.00000 0.00000 0.00000
  0.00000 3.00000 0.00000
  0.00000 0.00000 3.00000


     INVERSE SUPERCELL MATRIX

  0.33333 0.00000 0.00000
  0.00000 0.33333 0.00000
  0.00000 0.00000 0.33333


 LABEL AT.NO.      COORDINATES (ANGSTROM)
     1    22     0.0000     0.0000     0.0000
     2    22     2.5428     2.5428     0.0000
     3    22    -2.5427    -2.5427     0.0000
     4    22     2.5428     0.0000     2.5428
     5    22     5.0855     2.5427     2.5428
     6    22     0.0000    -2.5427     2.5428
     7    22    -2.5427     0.0000    -2.5427
     8    22     0.0000     2.5428    -2.5427
     9    22    -5.0855    -2.5428    -2.5427
    10    22     0.0000     2.5428     2.5428
    11    22     2.5427     5.0855     2.5428
    12    22    -2.5427     0.0000     2.5428
    13    22     2.5428     2.5428     5.0855
    14    22     5.0855     5.0855     5.0855
    15    22     0.0000     0.0000     5.0855
    16    22    -2.5427     2.5427     0.0000
    17    22     0.0000     5.0855     0.0000
    18    22    -5.0855     0.0000     0.0000
    19    22     0.0000    -2.5427    -2.5427
    20    22     2.5428     0.0000    -2.5427
    21    22    -2.5428    -5.0855    -2.5427
    22    22     2.5427    -2.5427     0.0000
    23    22     5.0855     0.0000     0.0000
    24    22     0.0000    -5.0855     0.0000
    25    22    -2.5427    -2.5427    -5.0855
    26    22     0.0000     0.0000    -5.0855
    27    22    -5.0855    -5.0855    -5.0855
    28    16     2.5428     2.5428     2.5428
    29    16    -2.5427    -2.5427     2.5428
    30    16    -0.0000    -0.0000     2.5428
    31    16    -2.5427     2.5427    -2.5427
    32    16    -7.6282    -2.5427    -2.5427
    33    16    -5.0855     0.0000    -2.5427
    34    16     0.0000     2.5428    -0.0000
    35    16    -5.0855    -2.5427     0.0000
    36    16    -2.5427     0.0000     0.0000
    37    16     2.5427    -2.5427    -2.5427
    38    16    -2.5427    -7.6282    -2.5427
    39    16     0.0000    -5.0855    -2.5427
    40    16    -2.5427    -2.5427    -7.6282
    41    16    -7.6282    -7.6282    -7.6282
    42    16    -5.0855    -5.0855    -7.6282
    43    16     0.0000    -2.5427    -5.0855
    44    16    -5.0855    -7.6282    -5.0855
    45    16    -2.5428    -5.0855    -5.0855
    46    16     2.5428     0.0000    -0.0000
    47    16    -2.5427    -5.0855     0.0000
    48    16     0.0000    -2.5427     0.0000
    49    16    -2.5427     0.0000    -5.0855
    50    16    -7.6282    -5.0855    -5.0855
    51    16    -5.0855    -2.5428    -5.0855
    52    16     0.0000     0.0000    -2.5427
    53    16    -5.0855    -5.0855    -2.5427
    54    16    -2.5427    -2.5427    -2.5427

 ***** 1296 SYMMOPS - TRANSLATORS IN ANGSTROM
 ***** MATRICES AND TRANSLATORS IN THE CARTESIAN REFERENCE FRAME

 ORDER   : ORDER OF THE OPERATOR

 TRANSLA : REAL TRANSLATION (WITHOUT ORIGIN SHIFT) IN CARTESIAN COORDINATES

 uvw/hkl : ORIENTATION OF THE OPERATOR IN CARTESIAN COORDINATES

 LOCATED : ORIGIN OF THE OPERATOR IN CARTESIAN COORDINATES

   NO.   1 INVERSE   1    ORDER   1        NO.   2 INVERSE   2    ORDER   2
    1.000   0.000   0.000     0.000        -1.000   0.000   0.000     0.000
    0.000   1.000   0.000     0.000         0.000  -1.000   0.000     0.000
    0.000   0.000   1.000     0.000         0.000   0.000   1.000     0.000
             OPERATION E(   1)                       OPERATION C(   2)
 DETERMINANT 1.; ROTATION(DEG)   0.      DETERMINANT 1.; ROTATION(DEG) 180.
 TRANSLA (  0.000    0.000    0.000)     TRANSLA (  0.000    0.000    0.000)
 uvw/hkl (  0.000    0.000    0.000)     uvw/hkl (  0.000    0.000    4.000)
 LOCATED (  0.000    0.000    0.000)     LOCATED (  0.000    0.000    0.000)

   NO.   3 INVERSE   3    ORDER   2        NO.   4 INVERSE   4    ORDER   2
    1.000   0.000   0.000     0.000        -1.000   0.000   0.000     0.000
    0.000  -1.000   0.000     0.000         0.000   1.000   0.000     0.000
    0.000   0.000  -1.000     0.000         0.000   0.000  -1.000     0.000
             OPERATION C(   2)                       OPERATION C(   2)
 DETERMINANT 1.; ROTATION(DEG) 180.      DETERMINANT 1.; ROTATION(DEG) 180.
 TRANSLA (  0.000    0.000    0.000)     TRANSLA (  0.000    0.000    0.000)
 uvw/hkl (  4.000    0.000    0.000)     uvw/hkl (  0.000   -4.000    0.000)
 LOCATED (  0.000    0.000    0.000)     LOCATED (  0.000    0.000    0.000)

   NO.   5 INVERSE   6    ORDER   3        NO.   6 INVERSE   5    ORDER   3
    0.000   0.000   1.000     0.000         0.000   1.000   0.000     0.000
    1.000   0.000   0.000     0.000         0.000   0.000   1.000     0.000
    0.000   1.000   0.000     0.000         1.000   0.000   0.000     0.000
             OPERATION C(   3)                       OPERATION C(   3)
 DETERMINANT 1.; ROTATION(DEG) 120.      DETERMINANT 1.; ROTATION(DEG) 120.
 TRANSLA (  0.000    0.000    0.000)     TRANSLA (  0.000    0.000    0.000)
 uvw/hkl (  1.000    1.000    1.000)     uvw/hkl (  1.000    1.000    1.000)
 LOCATED (  0.000    0.000    0.000)     LOCATED (  0.000    0.000    0.000)

   NO.   7 INVERSE   8    ORDER   3        NO.   8 INVERSE   7    ORDER   3
    0.000   0.000  -1.000     0.000         0.000  -1.000   0.000     0.000
   -1.000   0.000   0.000     0.000         0.000   0.000   1.000     0.000
    0.000   1.000   0.000     0.000        -1.000   0.000   0.000     0.000
             OPERATION C(   3)                       OPERATION C(   3)
 DETERMINANT 1.; ROTATION(DEG) 120.      DETERMINANT 1.; ROTATION(DEG) 120.
 TRANSLA (  0.000    0.000    0.000)     TRANSLA (  0.000    0.000    0.000)
 uvw/hkl ( -1.000    1.000    1.000)     uvw/hkl ( -1.000    1.000    1.000)
 LOCATED (  0.000    0.000    0.000)     LOCATED (  0.000    0.000    0.000)

   NO.   9 INVERSE  10    ORDER   3        NO.  10 INVERSE   9    ORDER   3
    0.000   0.000   1.000     0.000         0.000  -1.000   0.000     0.000
   -1.000   0.000   0.000     0.000         0.000   0.000  -1.000     0.000
    0.000  -1.000   0.000     0.000         1.000   0.000   0.000     0.000
             OPERATION C(   3)                       OPERATION C(   3)
 DETERMINANT 1.; ROTATION(DEG) 120.      DETERMINANT 1.; ROTATION(DEG) 120.
 TRANSLA (  0.000    0.000    0.000)     TRANSLA (  0.000    0.000    0.000)
 uvw/hkl (  1.000   -1.000    1.000)     uvw/hkl (  1.000   -1.000    1.000)
 LOCATED (  0.000    0.000    0.000)     LOCATED (  0.000    0.000    0.000)

   NO.  11 INVERSE  12    ORDER   3        NO.  12 INVERSE  11    ORDER   3
    0.000   0.000  -1.000     0.000         0.000   1.000   0.000     0.000
    1.000   0.000   0.000     0.000         0.000   0.000  -1.000     0.000
    0.000  -1.000   0.000     0.000        -1.000   0.000   0.000     0.000
             OPERATION C(   3)                       OPERATION C(   3)
 DETERMINANT 1.; ROTATION(DEG) 120.      DETERMINANT 1.; ROTATION(DEG) 120.
 TRANSLA (  0.000    0.000    0.000)     TRANSLA (  0.000    0.000    0.000)
 uvw/hkl ( -1.000   -1.000    1.000)     uvw/hkl ( -1.000   -1.000    1.000)
 LOCATED (  0.000    0.000    0.000)     LOCATED (  0.000    0.000    0.000)

   NO.  13 INVERSE  13    ORDER   2        NO.  14 INVERSE  14    ORDER   2
    0.000  -1.000   0.000     0.000         0.000   1.000   0.000     0.000
   -1.000   0.000   0.000     0.000         1.000   0.000   0.000     0.000
    0.000   0.000  -1.000     0.000         0.000   0.000  -1.000     0.000
             OPERATION C(   2)                       OPERATION C(   2)
 DETERMINANT 1.; ROTATION(DEG) 180.      DETERMINANT 1.; ROTATION(DEG) 180.
 TRANSLA (  0.000    0.000    0.000)     TRANSLA (  0.000    0.000    0.000)
 uvw/hkl (  2.000   -2.000    0.000)     uvw/hkl ( -2.000   -2.000    0.000)
 LOCATED (  0.000    0.000    0.000)     LOCATED (  0.000    0.000    0.000)

   NO.  15 INVERSE  16    ORDER   4        NO.  16 INVERSE  15    ORDER   4
    0.000   1.000   0.000     0.000         0.000  -1.000   0.000     0.000
   -1.000   0.000   0.000     0.000         1.000   0.000   0.000     0.000
    0.000   0.000   1.000     0.000         0.000   0.000   1.000     0.000
             OPERATION C(   4)                       OPERATION C(   4)
 DETERMINANT 1.; ROTATION(DEG)  90.      DETERMINANT 1.; ROTATION(DEG)  90.
 TRANSLA (  0.000    0.000    0.000)     TRANSLA (  0.000    0.000    0.000)
 uvw/hkl (  0.000    0.000    2.000)     uvw/hkl (  0.000    0.000    2.000)
 LOCATED (  0.000    0.000    0.000)     LOCATED (  0.000    0.000    0.000)

   NO.  17 INVERSE  17    ORDER   2        NO.  18 INVERSE  18    ORDER   2
   -1.000   0.000   0.000     0.000         0.000   0.000  -1.000     0.000
    0.000   0.000  -1.000     0.000         0.000  -1.000   0.000     0.000
    0.000  -1.000   0.000     0.000        -1.000   0.000   0.000     0.000
             OPERATION C(   2)                       OPERATION C(   2)
 DETERMINANT 1.; ROTATION(DEG) 180.      DETERMINANT 1.; ROTATION(DEG) 180.
 TRANSLA (  0.000    0.000    0.000)     TRANSLA (  0.000    0.000    0.000)
 uvw/hkl (  0.000   -2.000    2.000)     uvw/hkl ( -2.000    0.000    2.000)
 LOCATED (  0.000    0.000    0.000)     LOCATED (  0.000    0.000    0.000)

   NO.  19 INVERSE  21    ORDER   4        NO.  20 INVERSE  22    ORDER   4
    1.000   0.000   0.000     0.000         0.000   0.000  -1.000     0.000
    0.000   0.000   1.000     0.000         0.000   1.000   0.000     0.000
    0.000  -1.000   0.000     0.000         1.000   0.000   0.000     0.000
             OPERATION C(   4)                       OPERATION C(   4)
 DETERMINANT 1.; ROTATION(DEG)  90.      DETERMINANT 1.; ROTATION(DEG)  90.
 TRANSLA (  0.000    0.000    0.000)     TRANSLA (  0.000    0.000    0.000)
 uvw/hkl (  2.000    0.000    0.000)     uvw/hkl (  0.000   -2.000    0.000)
 LOCATED (  0.000    0.000    0.000)     LOCATED (  0.000    0.000    0.000)

   NO.  21 INVERSE  19    ORDER   4        NO.  22 INVERSE  20    ORDER   4
    1.000   0.000   0.000     0.000         0.000   0.000   1.000     0.000
    0.000   0.000  -1.000     0.000         0.000   1.000   0.000     0.000
    0.000   1.000   0.000     0.000        -1.000   0.000   0.000     0.000
             OPERATION C(   4)                       OPERATION C(   4)
 DETERMINANT 1.; ROTATION(DEG)  90.      DETERMINANT 1.; ROTATION(DEG)  90.
 TRANSLA (  0.000    0.000    0.000)     TRANSLA (  0.000    0.000    0.000)
 uvw/hkl (  2.000    0.000    0.000)     uvw/hkl (  0.000   -2.000    0.000)
 LOCATED (  0.000    0.000    0.000)     LOCATED (  0.000    0.000    0.000)

   NO.  23 INVERSE  23    ORDER   2        NO.  24 INVERSE  24    ORDER   2
   -1.000   0.000   0.000     0.000         0.000   0.000   1.000     0.000
    0.000   0.000   1.000     0.000         0.000  -1.000   0.000     0.000
    0.000   1.000   0.000     0.000         1.000   0.000   0.000     0.000
             OPERATION C(   2)                       OPERATION C(   2)
 DETERMINANT 1.; ROTATION(DEG) 180.      DETERMINANT 1.; ROTATION(DEG) 180.
 TRANSLA (  0.000    0.000    0.000)     TRANSLA (  0.000    0.000    0.000)
 uvw/hkl (  0.000    2.000    2.000)     uvw/hkl (  2.000    0.000    2.000)
 LOCATED (  0.000    0.000    0.000)     LOCATED (  0.000    0.000    0.000)

   NO.  25 INVERSE  25    ORDER   2        NO.  26 INVERSE  26    ORDER   2
   -1.000   0.000   0.000     0.000         1.000   0.000   0.000     0.000
    0.000  -1.000   0.000     0.000         0.000   1.000   0.000     0.000
    0.000   0.000  -1.000     0.000         0.000   0.000  -1.000     0.000
             OPERATION I(   2)                       OPERATION M(   2)
 DETERMINANT-1.; ROTATION(DEG) 180.      DETERMINANT-1.; ROTATION(DEG)   0.
 TRANSLA (  0.000    0.000    0.000)     TRANSLA (  0.000    0.000    0.000)
 uvw/hkl (  0.000    0.000    0.000)     uvw/hkl (  0.000    0.000   -2.000)
 LOCATED (  0.000    0.000    0.000)     LOCATED (  0.000    0.000    0.000)

   NO.  27 INVERSE  27    ORDER   2        NO.  28 INVERSE  28    ORDER   2
   -1.000   0.000   0.000     0.000         1.000   0.000   0.000     0.000
    0.000   1.000   0.000     0.000         0.000  -1.000   0.000     0.000
    0.000   0.000   1.000     0.000         0.000   0.000   1.000     0.000
             OPERATION M(   2)                       OPERATION M(   2)
 DETERMINANT-1.; ROTATION(DEG)   0.      DETERMINANT-1.; ROTATION(DEG)   0.
 TRANSLA (  0.000    0.000    0.000)     TRANSLA (  0.000    0.000    0.000)
 uvw/hkl (  2.000    0.000    0.000)     uvw/hkl (  0.000   -2.000    0.000)
 LOCATED (  0.000    0.000    0.000)     LOCATED (  0.000    0.000    0.000)

   NO.  29 INVERSE  30    ORDER   6        NO.  30 INVERSE  29    ORDER   6
    0.000   0.000  -1.000     0.000         0.000  -1.000   0.000     0.000
   -1.000   0.000   0.000     0.000         0.000   0.000  -1.000     0.000
    0.000  -1.000   0.000     0.000        -1.000   0.000   0.000     0.000
             OPERATION S(   6)                       OPERATION S(   6)
 DETERMINANT-1.; ROTATION(DEG)  60.      DETERMINANT-1.; ROTATION(DEG)  60.
 TRANSLA (  0.000    0.000    0.000)     TRANSLA (  0.000    0.000    0.000)
 uvw/hkl ( -1.000    1.000    1.000)     uvw/hkl (  1.000   -1.000    1.000)
 LOCATED (  0.000    0.000    0.000)     LOCATED (  0.000    0.000    0.000)

   NO.  31 INVERSE  32    ORDER   6        NO.  32 INVERSE  31    ORDER   6
    0.000   0.000   1.000     0.000         0.000   1.000   0.000     0.000
    1.000   0.000   0.000     0.000         0.000   0.000  -1.000     0.000
    0.000  -1.000   0.000     0.000         1.000   0.000   0.000     0.000
             OPERATION S(   6)                       OPERATION S(   6)
 DETERMINANT-1.; ROTATION(DEG)  60.      DETERMINANT-1.; ROTATION(DEG)  60.
 TRANSLA (  0.000    0.000    0.000)     TRANSLA (  0.000    0.000    0.000)
 uvw/hkl (  1.000    1.000    1.000)     uvw/hkl ( -1.000   -1.000    1.000)
 LOCATED (  0.000    0.000    0.000)     LOCATED (  0.000    0.000    0.000)

   NO.  33 INVERSE  34    ORDER   6        NO.  34 INVERSE  33    ORDER   6
    0.000   0.000  -1.000     0.000         0.000   1.000   0.000     0.000
    1.000   0.000   0.000     0.000         0.000   0.000   1.000     0.000
    0.000   1.000   0.000     0.000        -1.000   0.000   0.000     0.000
             OPERATION S(   6)                       OPERATION S(   6)
 DETERMINANT-1.; ROTATION(DEG)  60.      DETERMINANT-1.; ROTATION(DEG)  60.
 TRANSLA (  0.000    0.000    0.000)     TRANSLA (  0.000    0.000    0.000)
 uvw/hkl ( -1.000   -1.000    1.000)     uvw/hkl (  1.000    1.000    1.000)
 LOCATED (  0.000    0.000    0.000)     LOCATED (  0.000    0.000    0.000)

   NO.  35 INVERSE  36    ORDER   6        NO.  36 INVERSE  35    ORDER   6
    0.000   0.000   1.000     0.000         0.000  -1.000   0.000     0.000
   -1.000   0.000   0.000     0.000         0.000   0.000   1.000     0.000
    0.000   1.000   0.000     0.000         1.000   0.000   0.000     0.000
             OPERATION S(   6)                       OPERATION S(   6)
 DETERMINANT-1.; ROTATION(DEG)  60.      DETERMINANT-1.; ROTATION(DEG)  60.
 TRANSLA (  0.000    0.000    0.000)     TRANSLA (  0.000    0.000    0.000)
 uvw/hkl (  1.000   -1.000    1.000)     uvw/hkl ( -1.000    1.000    1.000)
 LOCATED (  0.000    0.000    0.000)     LOCATED (  0.000    0.000    0.000)

   NO.  37 INVERSE  37    ORDER   2        NO.  38 INVERSE  38    ORDER   2
    0.000   1.000   0.000     0.000         0.000  -1.000   0.000     0.000
    1.000   0.000   0.000     0.000        -1.000   0.000   0.000     0.000
    0.000   0.000   1.000     0.000         0.000   0.000   1.000     0.000
             OPERATION M(   2)                       OPERATION M(   2)
 DETERMINANT-1.; ROTATION(DEG)   0.      DETERMINANT-1.; ROTATION(DEG)   0.
 TRANSLA (  0.000    0.000    0.000)     TRANSLA (  0.000    0.000    0.000)
 uvw/hkl (  1.000   -1.000    0.000)     uvw/hkl (  1.000    1.000    0.000)
 LOCATED (  0.000    0.000    0.000)     LOCATED (  0.000    0.000    0.000)

   NO.  39 INVERSE  40    ORDER   4        NO.  40 INVERSE  39    ORDER   4
    0.000  -1.000   0.000     0.000         0.000   1.000   0.000     0.000
    1.000   0.000   0.000     0.000        -1.000   0.000   0.000     0.000
    0.000   0.000  -1.000     0.000         0.000   0.000  -1.000     0.000
             OPERATION S(   4)                       OPERATION S(   4)
 DETERMINANT-1.; ROTATION(DEG)  90.      DETERMINANT-1.; ROTATION(DEG)  90.
 TRANSLA (  0.000    0.000    0.000)     TRANSLA (  0.000    0.000    0.000)
 uvw/hkl (  0.000    0.000    2.000)     uvw/hkl (  0.000    0.000    2.000)
 LOCATED (  0.000    0.000    0.000)     LOCATED (  0.000    0.000    0.000)

   NO.  41 INVERSE  41    ORDER   2        NO.  42 INVERSE  42    ORDER   2
    1.000   0.000   0.000     0.000         0.000   0.000   1.000     0.000
    0.000   0.000   1.000     0.000         0.000   1.000   0.000     0.000
    0.000   1.000   0.000     0.000         1.000   0.000   0.000     0.000
             OPERATION M(   2)                       OPERATION M(   2)
 DETERMINANT-1.; ROTATION(DEG)   0.      DETERMINANT-1.; ROTATION(DEG)   0.
 TRANSLA (  0.000    0.000    0.000)     TRANSLA (  0.000    0.000    0.000)
 uvw/hkl (  0.000   -1.000    1.000)     uvw/hkl (  1.000    0.000   -1.000)
 LOCATED (  0.000    0.000    0.000)     LOCATED (  0.000    0.000    0.000)

   NO.  43 INVERSE  45    ORDER   4        NO.  44 INVERSE  46    ORDER   4
   -1.000   0.000   0.000     0.000         0.000   0.000   1.000     0.000
    0.000   0.000  -1.000     0.000         0.000  -1.000   0.000     0.000
    0.000   1.000   0.000     0.000        -1.000   0.000   0.000     0.000
             OPERATION S(   4)                       OPERATION S(   4)
 DETERMINANT-1.; ROTATION(DEG)  90.      DETERMINANT-1.; ROTATION(DEG)  90.
 TRANSLA (  0.000    0.000    0.000)     TRANSLA (  0.000    0.000    0.000)
 uvw/hkl (  0.000   -2.000    2.000)     uvw/hkl (  2.000    0.000    2.000)
 LOCATED (  0.000    0.000    0.000)     LOCATED (  0.000    0.000    0.000)

   NO.  45 INVERSE  43    ORDER   4        NO.  46 INVERSE  44    ORDER   4
   -1.000   0.000   0.000     0.000         0.000   0.000  -1.000     0.000
    0.000   0.000   1.000     0.000         0.000  -1.000   0.000     0.000
    0.000  -1.000   0.000     0.000         1.000   0.000   0.000     0.000
             OPERATION S(   4)                       OPERATION S(   4)
 DETERMINANT-1.; ROTATION(DEG)  90.      DETERMINANT-1.; ROTATION(DEG)  90.
 TRANSLA (  0.000    0.000    0.000)     TRANSLA (  0.000    0.000    0.000)
 uvw/hkl (  0.000    2.000    2.000)     uvw/hkl ( -2.000    0.000    2.000)
 LOCATED (  0.000    0.000    0.000)     LOCATED (  0.000    0.000    0.000)

   NO.  47 INVERSE  47    ORDER   2        NO.  48 INVERSE  48    ORDER   2
    1.000   0.000   0.000     0.000         0.000   0.000  -1.000     0.000
    0.000   0.000  -1.000     0.000         0.000   1.000   0.000     0.000
    0.000  -1.000   0.000     0.000        -1.000   0.000   0.000     0.000
             OPERATION M(   2)                       OPERATION M(   2)
 DETERMINANT-1.; ROTATION(DEG)   0.      DETERMINANT-1.; ROTATION(DEG)   0.
 TRANSLA (  0.000    0.000    0.000)     TRANSLA (  0.000    0.000    0.000)
 uvw/hkl (  0.000   -1.000   -1.000)     uvw/hkl (  1.000    0.000    1.000)
 LOCATED (  0.000    0.000    0.000)     LOCATED (  0.000    0.000    0.000)

   NO.  49 INVERSE  97    ORDER   1        NO.  50 INVERSE  50    ORDER   2
    1.000   0.000   0.000     2.543        -1.000   0.000   0.000     2.543
    0.000   1.000   0.000     2.543         0.000  -1.000   0.000     2.543
    0.000   0.000   1.000     0.000         0.000   0.000   1.000     0.000
             OPERATION E(   1)                       OPERATION C(   2)
 DETERMINANT 1.; ROTATION(DEG)   0.      DETERMINANT 1.; ROTATION(DEG) 180.
 TRANSLA (  2.543    2.543    0.000)     TRANSLA (  0.000    0.000    0.000)
 uvw/hkl (  0.000    0.000    0.000)     uvw/hkl (  0.000    0.000    4.000)
 LOCATED (  0.000    0.000    0.000)     LOCATED (  1.271    1.271    0.000)

   NO.  51 INVERSE 723    ORDER   2        NO.  52 INVERSE1012    ORDER   2
    1.000   0.000   0.000     2.543        -1.000   0.000   0.000     2.543
    0.000  -1.000   0.000     2.543         0.000   1.000   0.000     2.543
    0.000   0.000  -1.000     0.000         0.000   0.000  -1.000     0.000
             OPERATION C(   2)                       OPERATION C(   2)
 DETERMINANT 1.; ROTATION(DEG) 180.      DETERMINANT 1.; ROTATION(DEG) 180.
 TRANSLA (  2.543    0.000    0.000)     TRANSLA (  0.000    2.543    0.000)
 uvw/hkl (  4.000    0.000    0.000)     uvw/hkl (  0.000   -4.000    0.000)
 LOCATED (  0.000    1.271    0.000)     LOCATED (  1.271    0.000    0.000)

   NO.  53 INVERSE 294    ORDER   3        NO.  54 INVERSE 869    ORDER   3
    0.000   0.000   1.000     2.543         0.000   1.000   0.000     2.543
    1.000   0.000   0.000     2.543         0.000   0.000   1.000     2.543
    0.000   1.000   0.000     0.000         1.000   0.000   0.000     0.000
             OPERATION C(   3)                       OPERATION C(   3)
 DETERMINANT 1.; ROTATION(DEG) 120.      DETERMINANT 1.; ROTATION(DEG) 120.
 TRANSLA (  1.695    1.695    1.695)     TRANSLA (  1.695    1.695    1.695)
 uvw/hkl (  1.000    1.000    1.000)     uvw/hkl (  1.000    1.000    1.000)
 LOCATED (  0.848    1.695    0.000)     LOCATED (  1.695    0.848    0.000)

   NO.  55 INVERSE 152    ORDER   3        NO.  56 INVERSE 343    ORDER   3
    0.000   0.000  -1.000     2.543         0.000  -1.000   0.000     2.543
   -1.000   0.000   0.000     2.543         0.000   0.000   1.000     2.543
    0.000   1.000   0.000     0.000        -1.000   0.000   0.000     0.000
             OPERATION C(   3)                       OPERATION C(   3)
 DETERMINANT 1.; ROTATION(DEG) 120.      DETERMINANT 1.; ROTATION(DEG) 120.
 TRANSLA (  0.000    0.000    0.000)     TRANSLA (  0.000    0.000    0.000)
 uvw/hkl ( -1.000    1.000    1.000)     uvw/hkl ( -1.000    1.000    1.000)
 LOCATED (  2.543    0.000    0.000)     LOCATED (  0.000    2.543    0.000)

   NO.  57 INVERSE 922    ORDER   3        NO.  58 INVERSE 441    ORDER   3
    0.000   0.000   1.000     2.543         0.000  -1.000   0.000     2.543
   -1.000   0.000   0.000     2.543         0.000   0.000  -1.000     2.543
    0.000  -1.000   0.000     0.000         1.000   0.000   0.000     0.000
             OPERATION C(   3)                       OPERATION C(   3)
 DETERMINANT 1.; ROTATION(DEG) 120.      DETERMINANT 1.; ROTATION(DEG) 120.
 TRANSLA (  0.000    0.000    0.000)     TRANSLA (  0.000    0.000    0.000)
 uvw/hkl (  1.000   -1.000    1.000)     uvw/hkl (  1.000   -1.000    1.000)
 LOCATED (  2.543    0.000    0.000)     LOCATED (  0.000    2.543    0.000)

   NO.  59 INVERSE 540    ORDER   3        NO.  60 INVERSE 251    ORDER   3
    0.000   0.000  -1.000     2.543         0.000   1.000   0.000     2.543
    1.000   0.000   0.000     2.543         0.000   0.000  -1.000     2.543
    0.000  -1.000   0.000     0.000        -1.000   0.000   0.000     0.000
             OPERATION C(   3)                       OPERATION C(   3)
 DETERMINANT 1.; ROTATION(DEG) 120.      DETERMINANT 1.; ROTATION(DEG) 120.
 TRANSLA (  1.695    1.695   -1.695)     TRANSLA (  1.695    1.695   -1.695)
 uvw/hkl ( -1.000   -1.000    1.000)     uvw/hkl ( -1.000   -1.000    1.000)
 LOCATED (  0.848    1.695    0.000)     LOCATED (  1.695    0.848    0.000)

   NO.  61 INVERSE  61    ORDER   2        NO.  62 INVERSE 110    ORDER   2
    0.000  -1.000   0.000     2.543         0.000   1.000   0.000     2.543
   -1.000   0.000   0.000     2.543         1.000   0.000   0.000     2.543
    0.000   0.000  -1.000     0.000         0.000   0.000  -1.000     0.000
             OPERATION C(   2)                       OPERATION C(   2)
 DETERMINANT 1.; ROTATION(DEG) 180.      DETERMINANT 1.; ROTATION(DEG) 180.
 TRANSLA (  0.000    0.000    0.000)     TRANSLA (  2.543    2.543    0.000)
 uvw/hkl (  2.000   -2.000    0.000)     uvw/hkl ( -2.000   -2.000    0.000)
 LOCATED (  2.543    0.000    0.000)     LOCATED (  0.000    0.000    0.000)

   NO.  63 INVERSE1024    ORDER   4        NO.  64 INVERSE 735    ORDER   4
    0.000   1.000   0.000     2.543         0.000  -1.000   0.000     2.543
   -1.000   0.000   0.000     2.543         1.000   0.000   0.000     2.543
    0.000   0.000   1.000     0.000         0.000   0.000   1.000     0.000
             OPERATION C(   4)                       OPERATION C(   4)
 DETERMINANT 1.; ROTATION(DEG)  90.      DETERMINANT 1.; ROTATION(DEG)  90.
 TRANSLA (  0.000    0.000    0.000)     TRANSLA (  0.000    0.000    0.000)
 uvw/hkl (  0.000    0.000    2.000)     uvw/hkl (  0.000    0.000    2.000)
 LOCATED (  2.543    0.000    0.000)     LOCATED (  0.000    2.543    0.000)

   NO.  65 INVERSE 161    ORDER   2        NO.  66 INVERSE 450    ORDER   2
   -1.000   0.000   0.000     2.543         0.000   0.000  -1.000     2.543
    0.000   0.000  -1.000     2.543         0.000  -1.000   0.000     2.543
    0.000  -1.000   0.000     0.000        -1.000   0.000   0.000     0.000
             OPERATION C(   2)                       OPERATION C(   2)
 DETERMINANT 1.; ROTATION(DEG) 180.      DETERMINANT 1.; ROTATION(DEG) 180.
 TRANSLA (  0.000    1.271   -1.271)     TRANSLA (  1.271    0.000   -1.271)
 uvw/hkl (  0.000   -2.000    2.000)     uvw/hkl ( -2.000    0.000    2.000)
 LOCATED (  1.271    1.271    0.000)     LOCATED (  1.271    1.271    0.000)

   NO.  67 INVERSE 309    ORDER   4        NO.  68 INVERSE 262    ORDER   4
    1.000   0.000   0.000     2.543         0.000   0.000  -1.000     2.543
    0.000   0.000   1.000     2.543         0.000   1.000   0.000     2.543
    0.000  -1.000   0.000     0.000         1.000   0.000   0.000     0.000
             OPERATION C(   4)                       OPERATION C(   4)
 DETERMINANT 1.; ROTATION(DEG)  90.      DETERMINANT 1.; ROTATION(DEG)  90.
 TRANSLA (  2.543    0.000    0.000)     TRANSLA (  0.000    2.543    0.000)
 uvw/hkl (  2.000    0.000    0.000)     uvw/hkl (  0.000   -2.000    0.000)
 LOCATED (  0.000    1.271   -1.271)     LOCATED (  1.271    0.000    1.271)

   NO.  69 INVERSE 547    ORDER   4        NO.  70 INVERSE 884    ORDER   4
    1.000   0.000   0.000     2.543         0.000   0.000   1.000     2.543
    0.000   0.000  -1.000     2.543         0.000   1.000   0.000     2.543
    0.000   1.000   0.000     0.000        -1.000   0.000   0.000     0.000
             OPERATION C(   4)                       OPERATION C(   4)
 DETERMINANT 1.; ROTATION(DEG)  90.      DETERMINANT 1.; ROTATION(DEG)  90.
 TRANSLA (  2.543    0.000    0.000)     TRANSLA (  0.000    2.543    0.000)
 uvw/hkl (  2.000    0.000    0.000)     uvw/hkl (  0.000   -2.000    0.000)
 LOCATED (  0.000    1.271    1.271)     LOCATED (  1.271    0.000   -1.271)

   NO.  71 INVERSE 935    ORDER   2        NO.  72 INVERSE 360    ORDER   2
   -1.000   0.000   0.000     2.543         0.000   0.000   1.000     2.543
    0.000   0.000   1.000     2.543         0.000  -1.000   0.000     2.543
    0.000   1.000   0.000     0.000         1.000   0.000   0.000     0.000
             OPERATION C(   2)                       OPERATION C(   2)
 DETERMINANT 1.; ROTATION(DEG) 180.      DETERMINANT 1.; ROTATION(DEG) 180.
 TRANSLA (  0.000    1.271    1.271)     TRANSLA (  1.271    0.000    1.271)
 uvw/hkl (  0.000    2.000    2.000)     uvw/hkl (  2.000    0.000    2.000)
 LOCATED (  1.271    1.271    0.000)     LOCATED (  1.271    1.271    0.000)

   NO.  73 INVERSE  73    ORDER   2        NO.  74 INVERSE 122    ORDER   2
   -1.000   0.000   0.000     2.543         1.000   0.000   0.000     2.543
    0.000  -1.000   0.000     2.543         0.000   1.000   0.000     2.543
    0.000   0.000  -1.000     0.000         0.000   0.000  -1.000     0.000
             OPERATION I(   2)                       OPERATION M(   2)
 DETERMINANT-1.; ROTATION(DEG) 180.      DETERMINANT-1.; ROTATION(DEG)   0.
 TRANSLA (  0.000    0.000    0.000)     TRANSLA (  2.543    2.543    0.000)
 uvw/hkl (  0.000    0.000    0.000)     uvw/hkl (  0.000    0.000   -2.000)
 LOCATED (  1.271    1.271    0.000)     LOCATED (  0.000    0.000    0.000)

   NO.  75 INVERSE1035    ORDER   2        NO.  76 INVERSE 748    ORDER   2
   -1.000   0.000   0.000     2.543         1.000   0.000   0.000     2.543
    0.000   1.000   0.000     2.543         0.000  -1.000   0.000     2.543
    0.000   0.000   1.000     0.000         0.000   0.000   1.000     0.000
             OPERATION M(   2)                       OPERATION M(   2)
 DETERMINANT-1.; ROTATION(DEG)   0.      DETERMINANT-1.; ROTATION(DEG)   0.
 TRANSLA (  0.000    2.543    0.000)     TRANSLA (  2.543    0.000    0.000)
 uvw/hkl (  2.000    0.000    0.000)     uvw/hkl (  0.000   -2.000    0.000)
 LOCATED (  1.271    0.000    0.000)     LOCATED (  0.000    1.271    0.000)

   NO.  77 INVERSE 174    ORDER   6        NO.  78 INVERSE 461    ORDER   6
    0.000   0.000  -1.000     2.543         0.000  -1.000   0.000     2.543
   -1.000   0.000   0.000     2.543         0.000   0.000  -1.000     2.543
    0.000  -1.000   0.000     0.000        -1.000   0.000   0.000     0.000
             OPERATION S(   6)                       OPERATION S(   6)
 DETERMINANT-1.; ROTATION(DEG)  60.      DETERMINANT-1.; ROTATION(DEG)  60.
 TRANSLA (  0.000    0.000    0.000)     TRANSLA (  0.000    0.000    0.000)
 uvw/hkl ( -1.000    1.000    1.000)     uvw/hkl (  1.000   -1.000    1.000)
 LOCATED (  2.543    0.000    0.000)     LOCATED (  0.000    2.543    0.000)

   NO.  79 INVERSE 320    ORDER   6        NO.  80 INVERSE 271    ORDER   6
    0.000   0.000   1.000     2.543         0.000   1.000   0.000     2.543
    1.000   0.000   0.000     2.543         0.000   0.000  -1.000     2.543
    0.000  -1.000   0.000     0.000         1.000   0.000   0.000     0.000
             OPERATION S(   6)                       OPERATION S(   6)
 DETERMINANT-1.; ROTATION(DEG)  60.      DETERMINANT-1.; ROTATION(DEG)  60.
 TRANSLA (  0.000    0.000    0.000)     TRANSLA (  0.000    0.000    0.000)
 uvw/hkl (  1.000    1.000    1.000)     uvw/hkl ( -1.000   -1.000    1.000)
 LOCATED (  2.543    5.086    0.000)     LOCATED (  5.086    2.543    0.000)

   NO.  81 INVERSE 562    ORDER   6        NO.  82 INVERSE 897    ORDER   6
    0.000   0.000  -1.000     2.543         0.000   1.000   0.000     2.543
    1.000   0.000   0.000     2.543         0.000   0.000   1.000     2.543
    0.000   1.000   0.000     0.000        -1.000   0.000   0.000     0.000
             OPERATION S(   6)                       OPERATION S(   6)
 DETERMINANT-1.; ROTATION(DEG)  60.      DETERMINANT-1.; ROTATION(DEG)  60.
 TRANSLA (  0.000    0.000    0.000)     TRANSLA (  0.000    0.000    0.000)
 uvw/hkl ( -1.000   -1.000    1.000)     uvw/hkl (  1.000    1.000    1.000)
 LOCATED (  2.543    5.086    0.000)     LOCATED (  5.086    2.543    0.000)

   NO.  83 INVERSE 948    ORDER   6        NO.  84 INVERSE 371    ORDER   6
    0.000   0.000   1.000     2.543         0.000  -1.000   0.000     2.543
   -1.000   0.000   0.000     2.543         0.000   0.000   1.000     2.543
    0.000   1.000   0.000     0.000         1.000   0.000   0.000     0.000
             OPERATION S(   6)                       OPERATION S(   6)
 DETERMINANT-1.; ROTATION(DEG)  60.      DETERMINANT-1.; ROTATION(DEG)  60.
 TRANSLA (  0.000    0.000    0.000)     TRANSLA (  0.000    0.000    0.000)
 uvw/hkl (  1.000   -1.000    1.000)     uvw/hkl ( -1.000    1.000    1.000)
 LOCATED (  2.543    0.000    0.000)     LOCATED (  0.000    2.543    0.000)

   NO.  85 INVERSE 133    ORDER   2        NO.  86 INVERSE  86    ORDER   2
    0.000   1.000   0.000     2.543         0.000  -1.000   0.000     2.543
    1.000   0.000   0.000     2.543        -1.000   0.000   0.000     2.543
    0.000   0.000   1.000     0.000         0.000   0.000   1.000     0.000
             OPERATION M(   2)                       OPERATION M(   2)
 DETERMINANT-1.; ROTATION(DEG)   0.      DETERMINANT-1.; ROTATION(DEG)   0.
 TRANSLA (  2.543    2.543    0.000)     TRANSLA (  0.000    0.000    0.000)
 uvw/hkl (  1.000   -1.000    0.000)     uvw/hkl (  1.000    1.000    0.000)
 LOCATED (  0.000    0.000    0.000)     LOCATED (  2.543    0.000    0.000)

   NO.  87 INVERSE 760    ORDER   4        NO.  88 INVERSE1047    ORDER   4
    0.000  -1.000   0.000     2.543         0.000   1.000   0.000     2.543
    1.000   0.000   0.000     2.543        -1.000   0.000   0.000     2.543
    0.000   0.000  -1.000     0.000         0.000   0.000  -1.000     0.000
             OPERATION S(   4)                       OPERATION S(   4)
 DETERMINANT-1.; ROTATION(DEG)  90.      DETERMINANT-1.; ROTATION(DEG)  90.
 TRANSLA (  0.000    0.000    0.000)     TRANSLA (  0.000    0.000    0.000)
 uvw/hkl (  0.000    0.000    2.000)     uvw/hkl (  0.000    0.000    2.000)
 LOCATED (  0.000    2.543    0.000)     LOCATED (  2.543    0.000    0.000)

   NO.  89 INVERSE 329    ORDER   2        NO.  90 INVERSE 906    ORDER   2
    1.000   0.000   0.000     2.543         0.000   0.000   1.000     2.543
    0.000   0.000   1.000     2.543         0.000   1.000   0.000     2.543
    0.000   1.000   0.000     0.000         1.000   0.000   0.000     0.000
             OPERATION M(   2)                       OPERATION M(   2)
 DETERMINANT-1.; ROTATION(DEG)   0.      DETERMINANT-1.; ROTATION(DEG)   0.
 TRANSLA (  2.543    1.271    1.271)     TRANSLA (  1.271    2.543    1.271)
 uvw/hkl (  0.000   -1.000    1.000)     uvw/hkl (  1.000    0.000   -1.000)
 LOCATED (  0.000    1.271    0.000)     LOCATED (  1.271    0.000    0.000)

   NO.  91 INVERSE 189    ORDER   4        NO.  92 INVERSE 382    ORDER   4
   -1.000   0.000   0.000     2.543         0.000   0.000   1.000     2.543
    0.000   0.000  -1.000     2.543         0.000  -1.000   0.000     2.543
    0.000   1.000   0.000     0.000        -1.000   0.000   0.000     0.000
             OPERATION S(   4)                       OPERATION S(   4)
 DETERMINANT-1.; ROTATION(DEG)  90.      DETERMINANT-1.; ROTATION(DEG)  90.
 TRANSLA (  0.000    0.000    0.000)     TRANSLA (  0.000    0.000    0.000)
 uvw/hkl (  0.000   -2.000    2.000)     uvw/hkl (  2.000    0.000    2.000)
 LOCATED (  1.271    2.543    0.000)     LOCATED (  2.543    1.271    0.000)

   NO.  93 INVERSE 955    ORDER   4        NO.  94 INVERSE 476    ORDER   4
   -1.000   0.000   0.000     2.543         0.000   0.000  -1.000     2.543
    0.000   0.000   1.000     2.543         0.000  -1.000   0.000     2.543
    0.000  -1.000   0.000     0.000         1.000   0.000   0.000     0.000
             OPERATION S(   4)                       OPERATION S(   4)
 DETERMINANT-1.; ROTATION(DEG)  90.      DETERMINANT-1.; ROTATION(DEG)  90.
 TRANSLA (  0.000    0.000    0.000)     TRANSLA (  0.000    0.000    0.000)
 uvw/hkl (  0.000    2.000    2.000)     uvw/hkl ( -2.000    0.000    2.000)
 LOCATED (  1.271    2.543    0.000)     LOCATED (  2.543    1.271    0.000)

   NO.  95 INVERSE 575    ORDER   2        NO.  96 INVERSE 288    ORDER   2
    1.000   0.000   0.000     2.543         0.000   0.000  -1.000     2.543
    0.000   0.000  -1.000     2.543         0.000   1.000   0.000     2.543
    0.000  -1.000   0.000     0.000        -1.000   0.000   0.000     0.000
             OPERATION M(   2)                       OPERATION M(   2)
 DETERMINANT-1.; ROTATION(DEG)   0.      DETERMINANT-1.; ROTATION(DEG)   0.
 TRANSLA (  2.543    1.271   -1.271)     TRANSLA (  1.271    2.543   -1.271)
 uvw/hkl (  0.000   -1.000   -1.000)     uvw/hkl (  1.000    0.000    1.000)
 LOCATED (  0.000    1.271    0.000)     LOCATED (  1.271    0.000    0.000)

   NO.  97 INVERSE  49    ORDER   1        NO.  98 INVERSE  98    ORDER   2
    1.000   0.000   0.000    -2.543        -1.000   0.000   0.000    -2.543
    0.000   1.000   0.000    -2.543         0.000  -1.000   0.000    -2.543
    0.000   0.000   1.000     0.000         0.000   0.000   1.000     0.000
             OPERATION E(   1)                       OPERATION C(   2)
 DETERMINANT 1.; ROTATION(DEG)   0.      DETERMINANT 1.; ROTATION(DEG) 180.
 TRANSLA ( -2.543   -2.543    0.000)     TRANSLA (  0.000    0.000    0.000)
 uvw/hkl (  0.000    0.000    0.000)     uvw/hkl (  0.000    0.000    4.000)
 LOCATED (  0.000    0.000    0.000)     LOCATED ( -1.271   -1.271    0.000)

   NO.  99 INVERSE1011    ORDER   2        NO. 100 INVERSE 724    ORDER   2
    1.000   0.000   0.000    -2.543        -1.000   0.000   0.000    -2.543
    0.000  -1.000   0.000    -2.543         0.000   1.000   0.000    -2.543
    0.000   0.000  -1.000     0.000         0.000   0.000  -1.000     0.000
             OPERATION C(   2)                       OPERATION C(   2)
 DETERMINANT 1.; ROTATION(DEG) 180.      DETERMINANT 1.; ROTATION(DEG) 180.
 TRANSLA ( -2.543    0.000    0.000)     TRANSLA (  0.000   -2.543    0.000)
 uvw/hkl (  4.000    0.000    0.000)     uvw/hkl (  0.000   -4.000    0.000)
 LOCATED (  0.000   -1.271    0.000)     LOCATED ( -1.271    0.000    0.000)

   NO. 101 INVERSE 150    ORDER   3        NO. 102 INVERSE 437    ORDER   3
    0.000   0.000   1.000    -2.543         0.000   1.000   0.000    -2.543
    1.000   0.000   0.000    -2.543         0.000   0.000   1.000    -2.543
    0.000   1.000   0.000     0.000         1.000   0.000   0.000     0.000
             OPERATION C(   3)                       OPERATION C(   3)
 DETERMINANT 1.; ROTATION(DEG) 120.      DETERMINANT 1.; ROTATION(DEG) 120.
 TRANSLA ( -1.695   -1.695   -1.695)     TRANSLA ( -1.695   -1.695   -1.695)
 uvw/hkl (  1.000    1.000    1.000)     uvw/hkl (  1.000    1.000    1.000)
 LOCATED ( -0.848   -1.695    0.000)     LOCATED ( -1.695   -0.848    0.000)

   NO. 103 INVERSE 296    ORDER   3        NO. 104 INVERSE 247    ORDER   3
    0.000   0.000  -1.000    -2.543         0.000  -1.000   0.000    -2.543
   -1.000   0.000   0.000    -2.543         0.000   0.000   1.000    -2.543
    0.000   1.000   0.000     0.000        -1.000   0.000   0.000     0.000
             OPERATION C(   3)                       OPERATION C(   3)
 DETERMINANT 1.; ROTATION(DEG) 120.      DETERMINANT 1.; ROTATION(DEG) 120.
 TRANSLA (  0.000    0.000    0.000)     TRANSLA (  0.000    0.000    0.000)
 uvw/hkl ( -1.000    1.000    1.000)     uvw/hkl ( -1.000    1.000    1.000)
 LOCATED ( -2.543    0.000    0.000)     LOCATED (  0.000   -2.543    0.000)

   NO. 105 INVERSE 538    ORDER   3        NO. 106 INVERSE 873    ORDER   3
    0.000   0.000   1.000    -2.543         0.000  -1.000   0.000    -2.543
   -1.000   0.000   0.000    -2.543         0.000   0.000  -1.000    -2.543
    0.000  -1.000   0.000     0.000         1.000   0.000   0.000     0.000
             OPERATION C(   3)                       OPERATION C(   3)
 DETERMINANT 1.; ROTATION(DEG) 120.      DETERMINANT 1.; ROTATION(DEG) 120.
 TRANSLA (  0.000    0.000    0.000)     TRANSLA (  0.000    0.000    0.000)
 uvw/hkl (  1.000   -1.000    1.000)     uvw/hkl (  1.000   -1.000    1.000)
 LOCATED ( -2.543    0.000    0.000)     LOCATED (  0.000   -2.543    0.000)

   NO. 107 INVERSE 924    ORDER   3        NO. 108 INVERSE 347    ORDER   3
    0.000   0.000  -1.000    -2.543         0.000   1.000   0.000    -2.543
    1.000   0.000   0.000    -2.543         0.000   0.000  -1.000    -2.543
    0.000  -1.000   0.000     0.000        -1.000   0.000   0.000     0.000
             OPERATION C(   3)                       OPERATION C(   3)
 DETERMINANT 1.; ROTATION(DEG) 120.      DETERMINANT 1.; ROTATION(DEG) 120.
 TRANSLA ( -1.695   -1.695    1.695)     TRANSLA ( -1.695   -1.695    1.695)
 uvw/hkl ( -1.000   -1.000    1.000)     uvw/hkl ( -1.000   -1.000    1.000)
 LOCATED ( -0.848   -1.695    0.000)     LOCATED ( -1.695   -0.848    0.000)

   NO. 109 INVERSE 109    ORDER   2        NO. 110 INVERSE  62    ORDER   2
    0.000  -1.000   0.000    -2.543         0.000   1.000   0.000    -2.543
   -1.000   0.000   0.000    -2.543         1.000   0.000   0.000    -2.543
    0.000   0.000  -1.000     0.000         0.000   0.000  -1.000     0.000
             OPERATION C(   2)                       OPERATION C(   2)
 DETERMINANT 1.; ROTATION(DEG) 180.      DETERMINANT 1.; ROTATION(DEG) 180.
 TRANSLA (  0.000    0.000    0.000)     TRANSLA ( -2.543   -2.543    0.000)
 uvw/hkl (  2.000   -2.000    0.000)     uvw/hkl ( -2.000   -2.000    0.000)
 LOCATED ( -2.543    0.000    0.000)     LOCATED (  0.000    0.000    0.000)

   NO. 111 INVERSE 736    ORDER   4        NO. 112 INVERSE1023    ORDER   4
    0.000   1.000   0.000    -2.543         0.000  -1.000   0.000    -2.543
   -1.000   0.000   0.000    -2.543         1.000   0.000   0.000    -2.543
    0.000   0.000   1.000     0.000         0.000   0.000   1.000     0.000
             OPERATION C(   4)                       OPERATION C(   4)
 DETERMINANT 1.; ROTATION(DEG)  90.      DETERMINANT 1.; ROTATION(DEG)  90.
 TRANSLA (  0.000    0.000    0.000)     TRANSLA (  0.000    0.000    0.000)
 uvw/hkl (  0.000    0.000    2.000)     uvw/hkl (  0.000    0.000    2.000)
 LOCATED ( -2.543    0.000    0.000)     LOCATED (  0.000   -2.543    0.000)

   NO. 113 INVERSE 305    ORDER   2        NO. 114 INVERSE 882    ORDER   2
   -1.000   0.000   0.000    -2.543         0.000   0.000  -1.000    -2.543
    0.000   0.000  -1.000    -2.543         0.000  -1.000   0.000    -2.543
    0.000  -1.000   0.000     0.000        -1.000   0.000   0.000     0.000
             OPERATION C(   2)                       OPERATION C(   2)
 DETERMINANT 1.; ROTATION(DEG) 180.      DETERMINANT 1.; ROTATION(DEG) 180.
 TRANSLA (  0.000   -1.271    1.271)     TRANSLA ( -1.271    0.000    1.271)
 uvw/hkl (  0.000   -2.000    2.000)     uvw/hkl ( -2.000    0.000    2.000)
 LOCATED ( -1.271   -1.271    0.000)     LOCATED ( -1.271   -1.271    0.000)

   NO. 115 INVERSE 165    ORDER   4        NO. 116 INVERSE 358    ORDER   4
    1.000   0.000   0.000    -2.543         0.000   0.000  -1.000    -2.543
    0.000   0.000   1.000    -2.543         0.000   1.000   0.000    -2.543
    0.000  -1.000   0.000     0.000         1.000   0.000   0.000     0.000
             OPERATION C(   4)                       OPERATION C(   4)
 DETERMINANT 1.; ROTATION(DEG)  90.      DETERMINANT 1.; ROTATION(DEG)  90.
 TRANSLA ( -2.543    0.000    0.000)     TRANSLA (  0.000   -2.543    0.000)
 uvw/hkl (  2.000    0.000    0.000)     uvw/hkl (  0.000   -2.000    0.000)
 LOCATED (  0.000   -1.271    1.271)     LOCATED ( -1.271    0.000   -1.271)

   NO. 117 INVERSE 931    ORDER   4        NO. 118 INVERSE 452    ORDER   4
    1.000   0.000   0.000    -2.543         0.000   0.000   1.000    -2.543
    0.000   0.000  -1.000    -2.543         0.000   1.000   0.000    -2.543
    0.000   1.000   0.000     0.000        -1.000   0.000   0.000     0.000
             OPERATION C(   4)                       OPERATION C(   4)
 DETERMINANT 1.; ROTATION(DEG)  90.      DETERMINANT 1.; ROTATION(DEG)  90.
 TRANSLA ( -2.543    0.000    0.000)     TRANSLA (  0.000   -2.543    0.000)
 uvw/hkl (  2.000    0.000    0.000)     uvw/hkl (  0.000   -2.000    0.000)
 LOCATED (  0.000   -1.271   -1.271)     LOCATED ( -1.271    0.000    1.271)

   NO. 119 INVERSE 551    ORDER   2        NO. 120 INVERSE 264    ORDER   2
   -1.000   0.000   0.000    -2.543         0.000   0.000   1.000    -2.543
    0.000   0.000   1.000    -2.543         0.000  -1.000   0.000    -2.543
    0.000   1.000   0.000     0.000         1.000   0.000   0.000     0.000
             OPERATION C(   2)                       OPERATION C(   2)
 DETERMINANT 1.; ROTATION(DEG) 180.      DETERMINANT 1.; ROTATION(DEG) 180.
 TRANSLA (  0.000   -1.271   -1.271)     TRANSLA ( -1.271    0.000   -1.271)
 uvw/hkl (  0.000    2.000    2.000)     uvw/hkl (  2.000    0.000    2.000)
 LOCATED ( -1.271   -1.271    0.000)     LOCATED ( -1.271   -1.271    0.000)

   NO. 121 INVERSE 121    ORDER   2        NO. 122 INVERSE  74    ORDER   2
   -1.000   0.000   0.000    -2.543         1.000   0.000   0.000    -2.543
    0.000  -1.000   0.000    -2.543         0.000   1.000   0.000    -2.543
    0.000   0.000  -1.000     0.000         0.000   0.000  -1.000     0.000
             OPERATION I(   2)                       OPERATION M(   2)
 DETERMINANT-1.; ROTATION(DEG) 180.      DETERMINANT-1.; ROTATION(DEG)   0.
 TRANSLA (  0.000    0.000    0.000)     TRANSLA ( -2.543   -2.543    0.000)
 uvw/hkl (  0.000    0.000    0.000)     uvw/hkl (  0.000    0.000   -2.000)
 LOCATED ( -1.271   -1.271    0.000)     LOCATED (  0.000    0.000    0.000)

   NO. 123 INVERSE 747    ORDER   2        NO. 124 INVERSE1036    ORDER   2
   -1.000   0.000   0.000    -2.543         1.000   0.000   0.000    -2.543
    0.000   1.000   0.000    -2.543         0.000  -1.000   0.000    -2.543
    0.000   0.000   1.000     0.000         0.000   0.000   1.000     0.000
             OPERATION M(   2)                       OPERATION M(   2)
 DETERMINANT-1.; ROTATION(DEG)   0.      DETERMINANT-1.; ROTATION(DEG)   0.
 TRANSLA (  0.000   -2.543    0.000)     TRANSLA ( -2.543    0.000    0.000)
 uvw/hkl (  2.000    0.000    0.000)     uvw/hkl (  0.000   -2.000    0.000)
 LOCATED ( -1.271    0.000    0.000)     LOCATED (  0.000   -1.271    0.000)

   NO. 125 INVERSE 318    ORDER   6        NO. 126 INVERSE 893    ORDER   6
    0.000   0.000  -1.000    -2.543         0.000  -1.000   0.000    -2.543
   -1.000   0.000   0.000    -2.543         0.000   0.000  -1.000    -2.543
    0.000  -1.000   0.000     0.000        -1.000   0.000   0.000     0.000
             OPERATION S(   6)                       OPERATION S(   6)
 DETERMINANT-1.; ROTATION(DEG)  60.      DETERMINANT-1.; ROTATION(DEG)  60.
 TRANSLA (  0.000    0.000    0.000)     TRANSLA (  0.000    0.000    0.000)
 uvw/hkl ( -1.000    1.000    1.000)     uvw/hkl (  1.000   -1.000    1.000)
 LOCATED ( -2.543    0.000    0.000)     LOCATED (  0.000   -2.543    0.000)

   NO. 127 INVERSE 176    ORDER   6        NO. 128 INVERSE 367    ORDER   6
    0.000   0.000   1.000    -2.543         0.000   1.000   0.000    -2.543
    1.000   0.000   0.000    -2.543         0.000   0.000  -1.000    -2.543
    0.000  -1.000   0.000     0.000         1.000   0.000   0.000     0.000
             OPERATION S(   6)                       OPERATION S(   6)
 DETERMINANT-1.; ROTATION(DEG)  60.      DETERMINANT-1.; ROTATION(DEG)  60.
 TRANSLA (  0.000    0.000    0.000)     TRANSLA (  0.000    0.000    0.000)
 uvw/hkl (  1.000    1.000    1.000)     uvw/hkl ( -1.000   -1.000    1.000)
 LOCATED ( -2.543   -5.085    0.000)     LOCATED ( -5.085   -2.543    0.000)

   NO. 129 INVERSE 946    ORDER   6        NO. 130 INVERSE 465    ORDER   6
    0.000   0.000  -1.000    -2.543         0.000   1.000   0.000    -2.543
    1.000   0.000   0.000    -2.543         0.000   0.000   1.000    -2.543
    0.000   1.000   0.000     0.000        -1.000   0.000   0.000     0.000
             OPERATION S(   6)                       OPERATION S(   6)
 DETERMINANT-1.; ROTATION(DEG)  60.      DETERMINANT-1.; ROTATION(DEG)  60.
 TRANSLA (  0.000    0.000    0.000)     TRANSLA (  0.000    0.000    0.000)
 uvw/hkl ( -1.000   -1.000    1.000)     uvw/hkl (  1.000    1.000    1.000)
 LOCATED ( -2.543   -5.085    0.000)     LOCATED ( -5.085   -2.543    0.000)

   NO. 131 INVERSE 564    ORDER   6        NO. 132 INVERSE 275    ORDER   6
    0.000   0.000   1.000    -2.543         0.000  -1.000   0.000    -2.543
   -1.000   0.000   0.000    -2.543         0.000   0.000   1.000    -2.543
    0.000   1.000   0.000     0.000         1.000   0.000   0.000     0.000
             OPERATION S(   6)                       OPERATION S(   6)
 DETERMINANT-1.; ROTATION(DEG)  60.      DETERMINANT-1.; ROTATION(DEG)  60.
 TRANSLA (  0.000    0.000    0.000)     TRANSLA (  0.000    0.000    0.000)
 uvw/hkl (  1.000   -1.000    1.000)     uvw/hkl ( -1.000    1.000    1.000)
 LOCATED ( -2.543    0.000    0.000)     LOCATED (  0.000   -2.543    0.000)

   NO. 133 INVERSE  85    ORDER   2        NO. 134 INVERSE 134    ORDER   2
    0.000   1.000   0.000    -2.543         0.000  -1.000   0.000    -2.543
    1.000   0.000   0.000    -2.543        -1.000   0.000   0.000    -2.543
    0.000   0.000   1.000     0.000         0.000   0.000   1.000     0.000
             OPERATION M(   2)                       OPERATION M(   2)
 DETERMINANT-1.; ROTATION(DEG)   0.      DETERMINANT-1.; ROTATION(DEG)   0.
 TRANSLA ( -2.543   -2.543    0.000)     TRANSLA (  0.000    0.000    0.000)
 uvw/hkl (  1.000   -1.000    0.000)     uvw/hkl (  1.000    1.000    0.000)
 LOCATED (  0.000    0.000    0.000)     LOCATED ( -2.543    0.000    0.000)

   NO. 135 INVERSE1048    ORDER   4        NO. 136 INVERSE 759    ORDER   4
    0.000  -1.000   0.000    -2.543         0.000   1.000   0.000    -2.543
    1.000   0.000   0.000    -2.543        -1.000   0.000   0.000    -2.543
    0.000   0.000  -1.000     0.000         0.000   0.000  -1.000     0.000
             OPERATION S(   4)                       OPERATION S(   4)
 DETERMINANT-1.; ROTATION(DEG)  90.      DETERMINANT-1.; ROTATION(DEG)  90.
 TRANSLA (  0.000    0.000    0.000)     TRANSLA (  0.000    0.000    0.000)
 uvw/hkl (  0.000    0.000    2.000)     uvw/hkl (  0.000    0.000    2.000)
 LOCATED (  0.000   -2.543    0.000)     LOCATED ( -2.543    0.000    0.000)

   NO. 137 INVERSE 185    ORDER   2        NO. 138 INVERSE 474    ORDER   2
    1.000   0.000   0.000    -2.543         0.000   0.000   1.000    -2.543
    0.000   0.000   1.000    -2.543         0.000   1.000   0.000    -2.543
    0.000   1.000   0.000     0.000         1.000   0.000   0.000     0.000
             OPERATION M(   2)                       OPERATION M(   2)
 DETERMINANT-1.; ROTATION(DEG)   0.      DETERMINANT-1.; ROTATION(DEG)   0.
 TRANSLA ( -2.543   -1.271   -1.271)     TRANSLA ( -1.271   -2.543   -1.271)
 uvw/hkl (  0.000   -1.000    1.000)     uvw/hkl (  1.000    0.000   -1.000)
 LOCATED (  0.000   -1.271    0.000)     LOCATED ( -1.271    0.000    0.000)

   NO. 139 INVERSE 333    ORDER   4        NO. 140 INVERSE 286    ORDER   4
   -1.000   0.000   0.000    -2.543         0.000   0.000   1.000    -2.543
    0.000   0.000  -1.000    -2.543         0.000  -1.000   0.000    -2.543
    0.000   1.000   0.000     0.000        -1.000   0.000   0.000     0.000
             OPERATION S(   4)                       OPERATION S(   4)
 DETERMINANT-1.; ROTATION(DEG)  90.      DETERMINANT-1.; ROTATION(DEG)  90.
 TRANSLA (  0.000    0.000    0.000)     TRANSLA (  0.000    0.000    0.000)
 uvw/hkl (  0.000   -2.000    2.000)     uvw/hkl (  2.000    0.000    2.000)
 LOCATED ( -1.271   -2.543    0.000)     LOCATED ( -2.543   -1.271    0.000)

   NO. 141 INVERSE 571    ORDER   4        NO. 142 INVERSE 908    ORDER   4
   -1.000   0.000   0.000    -2.543         0.000   0.000  -1.000    -2.543
    0.000   0.000   1.000    -2.543         0.000  -1.000   0.000    -2.543
    0.000  -1.000   0.000     0.000         1.000   0.000   0.000     0.000
             OPERATION S(   4)                       OPERATION S(   4)
 DETERMINANT-1.; ROTATION(DEG)  90.      DETERMINANT-1.; ROTATION(DEG)  90.
 TRANSLA (  0.000    0.000    0.000)     TRANSLA (  0.000    0.000    0.000)
 uvw/hkl (  0.000    2.000    2.000)     uvw/hkl ( -2.000    0.000    2.000)
 LOCATED ( -1.271   -2.543    0.000)     LOCATED ( -2.543   -1.271    0.000)

   NO. 143 INVERSE 959    ORDER   2        NO. 144 INVERSE 384    ORDER   2
    1.000   0.000   0.000    -2.543         0.000   0.000  -1.000    -2.543
    0.000   0.000  -1.000    -2.543         0.000   1.000   0.000    -2.543
    0.000  -1.000   0.000     0.000        -1.000   0.000   0.000     0.000
             OPERATION M(   2)                       OPERATION M(   2)
 DETERMINANT-1.; ROTATION(DEG)   0.      DETERMINANT-1.; ROTATION(DEG)   0.
 TRANSLA ( -2.543   -1.271    1.271)     TRANSLA ( -1.271   -2.543    1.271)
 uvw/hkl (  0.000   -1.000   -1.000)     uvw/hkl (  1.000    0.000    1.000)
 LOCATED (  0.000   -1.271    0.000)     LOCATED ( -1.271    0.000    0.000)

   NO. 145 INVERSE 289    ORDER   1        NO. 146 INVERSE 914    ORDER   2
    1.000   0.000   0.000     2.543        -1.000   0.000   0.000     2.543
    0.000   1.000   0.000     0.000         0.000  -1.000   0.000     0.000
    0.000   0.000   1.000     2.543         0.000   0.000   1.000     2.543
             OPERATION E(   1)                       OPERATION C(   2)
 DETERMINANT 1.; ROTATION(DEG)   0.      DETERMINANT 1.; ROTATION(DEG) 180.
 TRANSLA (  2.543    0.000    2.543)     TRANSLA (  0.000    0.000    2.543)
 uvw/hkl (  0.000    0.000    0.000)     uvw/hkl (  0.000    0.000    4.000)
 LOCATED (  0.000    0.000    0.000)     LOCATED (  1.271    0.000    0.000)

   NO. 147 INVERSE 531    ORDER   2        NO. 148 INVERSE 148    ORDER   2
    1.000   0.000   0.000     2.543        -1.000   0.000   0.000     2.543
    0.000  -1.000   0.000     0.000         0.000   1.000   0.000     0.000
    0.000   0.000  -1.000     2.543         0.000   0.000  -1.000     2.543
             OPERATION C(   2)                       OPERATION C(   2)
 DETERMINANT 1.; ROTATION(DEG) 180.      DETERMINANT 1.; ROTATION(DEG) 180.
 TRANSLA (  2.543    0.000    0.000)     TRANSLA (  0.000    0.000    0.000)
 uvw/hkl (  4.000    0.000    0.000)     uvw/hkl (  0.000   -4.000    0.000)
 LOCATED (  0.000    0.000    1.271)     LOCATED (  1.271    0.000    1.271)

   NO. 149 INVERSE 870    ORDER   3        NO. 150 INVERSE 101    ORDER   3
    0.000   0.000   1.000     2.543         0.000   1.000   0.000     2.543
    1.000   0.000   0.000     0.000         0.000   0.000   1.000     0.000
    0.000   1.000   0.000     2.543         1.000   0.000   0.000     2.543
             OPERATION C(   3)                       OPERATION C(   3)
 DETERMINANT 1.; ROTATION(DEG) 120.      DETERMINANT 1.; ROTATION(DEG) 120.
 TRANSLA (  1.695    1.695    1.695)     TRANSLA (  1.695    1.695    1.695)
 uvw/hkl (  1.000    1.000    1.000)     uvw/hkl (  1.000    1.000    1.000)
 LOCATED (  0.848   -0.848    0.000)     LOCATED ( -0.848   -1.695    0.000)

   NO. 151 INVERSE 248    ORDER   3        NO. 152 INVERSE  55    ORDER   3
    0.000   0.000  -1.000     2.543         0.000  -1.000   0.000     2.543
   -1.000   0.000   0.000     0.000         0.000   0.000   1.000     0.000
    0.000   1.000   0.000     2.543        -1.000   0.000   0.000     2.543
             OPERATION C(   3)                       OPERATION C(   3)
 DETERMINANT 1.; ROTATION(DEG) 120.      DETERMINANT 1.; ROTATION(DEG) 120.
 TRANSLA (  0.000    0.000    0.000)     TRANSLA (  0.000    0.000    0.000)
 uvw/hkl ( -1.000    1.000    1.000)     uvw/hkl ( -1.000    1.000    1.000)
 LOCATED (  2.543   -2.543    0.000)     LOCATED (  2.543    0.000    0.000)

   NO. 153 INVERSE 346    ORDER   3        NO. 154 INVERSE 729    ORDER   3
    0.000   0.000   1.000     2.543         0.000  -1.000   0.000     2.543
   -1.000   0.000   0.000     0.000         0.000   0.000  -1.000     0.000
    0.000  -1.000   0.000     2.543         1.000   0.000   0.000     2.543
             OPERATION C(   3)                       OPERATION C(   3)
 DETERMINANT 1.; ROTATION(DEG) 120.      DETERMINANT 1.; ROTATION(DEG) 120.
 TRANSLA (  1.695   -1.695    1.695)     TRANSLA (  1.695   -1.695    1.695)
 uvw/hkl (  1.000   -1.000    1.000)     uvw/hkl (  1.000   -1.000    1.000)
 LOCATED (  0.848    0.848    0.000)     LOCATED ( -0.848    1.695    0.000)

   NO. 155 INVERSE 444    ORDER   3        NO. 156 INVERSE1019    ORDER   3
    0.000   0.000  -1.000     2.543         0.000   1.000   0.000     2.543
    1.000   0.000   0.000     0.000         0.000   0.000  -1.000     0.000
    0.000  -1.000   0.000     2.543        -1.000   0.000   0.000     2.543
             OPERATION C(   3)                       OPERATION C(   3)
 DETERMINANT 1.; ROTATION(DEG) 120.      DETERMINANT 1.; ROTATION(DEG) 120.
 TRANSLA (  0.000    0.000    0.000)     TRANSLA (  0.000    0.000    0.000)
 uvw/hkl ( -1.000   -1.000    1.000)     uvw/hkl ( -1.000   -1.000    1.000)
 LOCATED (  2.543    2.543    0.000)     LOCATED (  2.543    0.000    0.000)

   NO. 157 INVERSE 445    ORDER   2        NO. 158 INVERSE 254    ORDER   2
    0.000  -1.000   0.000     2.543         0.000   1.000   0.000     2.543
   -1.000   0.000   0.000     0.000         1.000   0.000   0.000     0.000
    0.000   0.000  -1.000     2.543         0.000   0.000  -1.000     2.543
             OPERATION C(   2)                       OPERATION C(   2)
 DETERMINANT 1.; ROTATION(DEG) 180.      DETERMINANT 1.; ROTATION(DEG) 180.
 TRANSLA (  1.271   -1.271    0.000)     TRANSLA (  1.271    1.271    0.000)
 uvw/hkl (  2.000   -2.000    0.000)     uvw/hkl ( -2.000   -2.000    0.000)
 LOCATED (  1.271    0.000    1.271)     LOCATED (  1.271    0.000    1.271)

   NO. 159 INVERSE 880    ORDER   4        NO. 160 INVERSE 351    ORDER   4
    0.000   1.000   0.000     2.543         0.000  -1.000   0.000     2.543
   -1.000   0.000   0.000     0.000         1.000   0.000   0.000     0.000
    0.000   0.000   1.000     2.543         0.000   0.000   1.000     2.543
             OPERATION C(   4)                       OPERATION C(   4)
 DETERMINANT 1.; ROTATION(DEG)  90.      DETERMINANT 1.; ROTATION(DEG)  90.
 TRANSLA (  0.000    0.000    2.543)     TRANSLA (  0.000    0.000    2.543)
 uvw/hkl (  0.000    0.000    2.000)     uvw/hkl (  0.000    0.000    2.000)
 LOCATED (  1.271   -1.271    0.000)     LOCATED (  1.271    1.271    0.000)

   NO. 161 INVERSE  65    ORDER   2        NO. 162 INVERSE 162    ORDER   2
   -1.000   0.000   0.000     2.543         0.000   0.000  -1.000     2.543
    0.000   0.000  -1.000     0.000         0.000  -1.000   0.000     0.000
    0.000  -1.000   0.000     2.543        -1.000   0.000   0.000     2.543
             OPERATION C(   2)                       OPERATION C(   2)
 DETERMINANT 1.; ROTATION(DEG) 180.      DETERMINANT 1.; ROTATION(DEG) 180.
 TRANSLA (  0.000   -1.271    1.271)     TRANSLA (  0.000    0.000    0.000)
 uvw/hkl (  0.000   -2.000    2.000)     uvw/hkl ( -2.000    0.000    2.000)
 LOCATED (  1.271    1.271    0.000)     LOCATED (  2.543    0.000    0.000)

   NO. 163 INVERSE 741    ORDER   4        NO. 164 INVERSE 550    ORDER   4
    1.000   0.000   0.000     2.543         0.000   0.000  -1.000     2.543
    0.000   0.000   1.000     0.000         0.000   1.000   0.000     0.000
    0.000  -1.000   0.000     2.543         1.000   0.000   0.000     2.543
             OPERATION C(   4)                       OPERATION C(   4)
 DETERMINANT 1.; ROTATION(DEG)  90.      DETERMINANT 1.; ROTATION(DEG)  90.
 TRANSLA (  2.543    0.000    0.000)     TRANSLA (  0.000    0.000    0.000)
 uvw/hkl (  2.000    0.000    0.000)     uvw/hkl (  0.000   -2.000    0.000)
 LOCATED (  0.000    1.271    1.271)     LOCATED (  0.000    0.000    2.543)

   NO. 165 INVERSE 115    ORDER   4        NO. 166 INVERSE 932    ORDER   4
    1.000   0.000   0.000     2.543         0.000   0.000   1.000     2.543
    0.000   0.000  -1.000     0.000         0.000   1.000   0.000     0.000
    0.000   1.000   0.000     2.543        -1.000   0.000   0.000     2.543
             OPERATION C(   4)                       OPERATION C(   4)
 DETERMINANT 1.; ROTATION(DEG)  90.      DETERMINANT 1.; ROTATION(DEG)  90.
 TRANSLA (  2.543    0.000    0.000)     TRANSLA (  0.000    0.000    0.000)
 uvw/hkl (  2.000    0.000    0.000)     uvw/hkl (  0.000   -2.000    0.000)
 LOCATED (  0.000   -1.271    1.271)     LOCATED (  2.543    0.000    0.000)

   NO. 167 INVERSE1031    ORDER   2        NO. 168 INVERSE 312    ORDER   2
   -1.000   0.000   0.000     2.543         0.000   0.000   1.000     2.543
    0.000   0.000   1.000     0.000         0.000  -1.000   0.000     0.000
    0.000   1.000   0.000     2.543         1.000   0.000   0.000     2.543
             OPERATION C(   2)                       OPERATION C(   2)
 DETERMINANT 1.; ROTATION(DEG) 180.      DETERMINANT 1.; ROTATION(DEG) 180.
 TRANSLA (  0.000    1.271    1.271)     TRANSLA (  2.543    0.000    2.543)
 uvw/hkl (  0.000    2.000    2.000)     uvw/hkl (  2.000    0.000    2.000)
 LOCATED (  1.271   -1.271    0.000)     LOCATED (  0.000    0.000    0.000)

   NO. 169 INVERSE 169    ORDER   2        NO. 170 INVERSE 554    ORDER   2
   -1.000   0.000   0.000     2.543         1.000   0.000   0.000     2.543
    0.000  -1.000   0.000     0.000         0.000   1.000   0.000     0.000
    0.000   0.000  -1.000     2.543         0.000   0.000  -1.000     2.543
             OPERATION I(   2)                       OPERATION M(   2)
 DETERMINANT-1.; ROTATION(DEG) 180.      DETERMINANT-1.; ROTATION(DEG)   0.
 TRANSLA (  0.000    0.000    0.000)     TRANSLA (  2.543    0.000    0.000)
 uvw/hkl (  0.000    0.000    0.000)     uvw/hkl (  0.000    0.000   -2.000)
 LOCATED (  1.271    0.000    1.271)     LOCATED (  0.000    0.000    1.271)

   NO. 171 INVERSE 939    ORDER   2        NO. 172 INVERSE 316    ORDER   2
   -1.000   0.000   0.000     2.543         1.000   0.000   0.000     2.543
    0.000   1.000   0.000     0.000         0.000  -1.000   0.000     0.000
    0.000   0.000   1.000     2.543         0.000   0.000   1.000     2.543
             OPERATION M(   2)                       OPERATION M(   2)
 DETERMINANT-1.; ROTATION(DEG)   0.      DETERMINANT-1.; ROTATION(DEG)   0.
 TRANSLA (  0.000    0.000    2.543)     TRANSLA (  2.543    0.000    2.543)
 uvw/hkl (  2.000    0.000    0.000)     uvw/hkl (  0.000   -2.000    0.000)
 LOCATED (  1.271    0.000    0.000)     LOCATED (  0.000    0.000    0.000)

   NO. 173 INVERSE 462    ORDER   6        NO. 174 INVERSE  77    ORDER   6
    0.000   0.000  -1.000     2.543         0.000  -1.000   0.000     2.543
   -1.000   0.000   0.000     0.000         0.000   0.000  -1.000     0.000
    0.000  -1.000   0.000     2.543        -1.000   0.000   0.000     2.543
             OPERATION S(   6)                       OPERATION S(   6)
 DETERMINANT-1.; ROTATION(DEG)  60.      DETERMINANT-1.; ROTATION(DEG)  60.
 TRANSLA (  0.000    0.000    0.000)     TRANSLA (  0.000    0.000    0.000)
 uvw/hkl ( -1.000    1.000    1.000)     uvw/hkl (  1.000   -1.000    1.000)
 LOCATED (  2.543   -2.543    0.000)     LOCATED (  2.543    0.000    0.000)

   NO. 175 INVERSE 368    ORDER   6        NO. 176 INVERSE 127    ORDER   6
    0.000   0.000   1.000     2.543         0.000   1.000   0.000     2.543
    1.000   0.000   0.000     0.000         0.000   0.000  -1.000     0.000
    0.000  -1.000   0.000     2.543         1.000   0.000   0.000     2.543
             OPERATION S(   6)                       OPERATION S(   6)
 DETERMINANT-1.; ROTATION(DEG)  60.      DETERMINANT-1.; ROTATION(DEG)  60.
 TRANSLA (  0.000    0.000    0.000)     TRANSLA (  0.000    0.000    0.000)
 uvw/hkl (  1.000    1.000    1.000)     uvw/hkl ( -1.000   -1.000    1.000)
 LOCATED (  2.543    2.543    0.000)     LOCATED (  2.543    0.000    0.000)

   NO. 177 INVERSE 274    ORDER   6        NO. 178 INVERSE1041    ORDER   6
    0.000   0.000  -1.000     2.543         0.000   1.000   0.000     2.543
    1.000   0.000   0.000     0.000         0.000   0.000   1.000     0.000
    0.000   1.000   0.000     2.543        -1.000   0.000   0.000     2.543
             OPERATION S(   6)                       OPERATION S(   6)
 DETERMINANT-1.; ROTATION(DEG)  60.      DETERMINANT-1.; ROTATION(DEG)  60.
 TRANSLA (  0.000    0.000    0.000)     TRANSLA (  0.000    0.000    0.000)
 uvw/hkl ( -1.000   -1.000    1.000)     uvw/hkl (  1.000    1.000    1.000)
 LOCATED (  2.543    2.543    0.000)     LOCATED (  2.543    0.000    0.000)

   NO. 179 INVERSE 900    ORDER   6        NO. 180 INVERSE 755    ORDER   6
    0.000   0.000   1.000     2.543         0.000  -1.000   0.000     2.543
   -1.000   0.000   0.000     0.000         0.000   0.000   1.000     0.000
    0.000   1.000   0.000     2.543         1.000   0.000   0.000     2.543
             OPERATION S(   6)                       OPERATION S(   6)
 DETERMINANT-1.; ROTATION(DEG)  60.      DETERMINANT-1.; ROTATION(DEG)  60.
 TRANSLA (  0.000    0.000    0.000)     TRANSLA (  0.000    0.000    0.000)
 uvw/hkl (  1.000   -1.000    1.000)     uvw/hkl ( -1.000    1.000    1.000)
 LOCATED (  2.543   -2.543    0.000)     LOCATED (  2.543    0.000    0.000)

   NO. 181 INVERSE 901    ORDER   2        NO. 182 INVERSE 374    ORDER   2
    0.000   1.000   0.000     2.543         0.000  -1.000   0.000     2.543
    1.000   0.000   0.000     0.000        -1.000   0.000   0.000     0.000
    0.000   0.000   1.000     2.543         0.000   0.000   1.000     2.543
             OPERATION M(   2)                       OPERATION M(   2)
 DETERMINANT-1.; ROTATION(DEG)   0.      DETERMINANT-1.; ROTATION(DEG)   0.
 TRANSLA (  1.271    1.271    2.543)     TRANSLA (  1.271   -1.271    2.543)
 uvw/hkl (  1.000   -1.000    0.000)     uvw/hkl (  1.000    1.000    0.000)
 LOCATED (  1.271    0.000    0.000)     LOCATED (  1.271    0.000    0.000)

   NO. 183 INVERSE 472    ORDER   4        NO. 184 INVERSE 279    ORDER   4
    0.000  -1.000   0.000     2.543         0.000   1.000   0.000     2.543
    1.000   0.000   0.000     0.000        -1.000   0.000   0.000     0.000
    0.000   0.000  -1.000     2.543         0.000   0.000  -1.000     2.543
             OPERATION S(   4)                       OPERATION S(   4)
 DETERMINANT-1.; ROTATION(DEG)  90.      DETERMINANT-1.; ROTATION(DEG)  90.
 TRANSLA (  0.000    0.000    0.000)     TRANSLA (  0.000    0.000    0.000)
 uvw/hkl (  0.000    0.000    2.000)     uvw/hkl (  0.000    0.000    2.000)
 LOCATED (  1.271    1.271    1.271)     LOCATED (  1.271   -1.271    1.271)

   NO. 185 INVERSE 137    ORDER   2        NO. 186 INVERSE 330    ORDER   2
    1.000   0.000   0.000     2.543         0.000   0.000   1.000     2.543
    0.000   0.000   1.000     0.000         0.000   1.000   0.000     0.000
    0.000   1.000   0.000     2.543         1.000   0.000   0.000     2.543
             OPERATION M(   2)                       OPERATION M(   2)
 DETERMINANT-1.; ROTATION(DEG)   0.      DETERMINANT-1.; ROTATION(DEG)   0.
 TRANSLA (  2.543    1.271    1.271)     TRANSLA (  2.543    0.000    2.543)
 uvw/hkl (  0.000   -1.000    1.000)     uvw/hkl (  1.000    0.000   -1.000)
 LOCATED (  0.000   -1.271    0.000)     LOCATED (  0.000    0.000    0.000)

   NO. 187 INVERSE1053    ORDER   4        NO. 188 INVERSE 958    ORDER   4
   -1.000   0.000   0.000     2.543         0.000   0.000   1.000     2.543
    0.000   0.000  -1.000     0.000         0.000  -1.000   0.000     0.000
    0.000   1.000   0.000     2.543        -1.000   0.000   0.000     2.543
             OPERATION S(   4)                       OPERATION S(   4)
 DETERMINANT-1.; ROTATION(DEG)  90.      DETERMINANT-1.; ROTATION(DEG)  90.
 TRANSLA (  0.000    0.000    0.000)     TRANSLA (  0.000    0.000    0.000)
 uvw/hkl (  0.000   -2.000    2.000)     uvw/hkl (  2.000    0.000    2.000)
 LOCATED (  1.271    0.000    0.000)     LOCATED (  2.543    0.000    0.000)

   NO. 189 INVERSE  91    ORDER   4        NO. 190 INVERSE 572    ORDER   4
   -1.000   0.000   0.000     2.543         0.000   0.000  -1.000     2.543
    0.000   0.000   1.000     0.000         0.000  -1.000   0.000     0.000
    0.000  -1.000   0.000     2.543         1.000   0.000   0.000     2.543
             OPERATION S(   4)                       OPERATION S(   4)
 DETERMINANT-1.; ROTATION(DEG)  90.      DETERMINANT-1.; ROTATION(DEG)  90.
 TRANSLA (  0.000    0.000    0.000)     TRANSLA (  0.000    0.000    0.000)
 uvw/hkl (  0.000    2.000    2.000)     uvw/hkl ( -2.000    0.000    2.000)
 LOCATED (  1.271    0.000    0.000)     LOCATED (  2.543    0.000    0.000)

   NO. 191 INVERSE 767    ORDER   2        NO. 192 INVERSE 192    ORDER   2
    1.000   0.000   0.000     2.543         0.000   0.000  -1.000     2.543
    0.000   0.000  -1.000     0.000         0.000   1.000   0.000     0.000
    0.000  -1.000   0.000     2.543        -1.000   0.000   0.000     2.543
             OPERATION M(   2)                       OPERATION M(   2)
 DETERMINANT-1.; ROTATION(DEG)   0.      DETERMINANT-1.; ROTATION(DEG)   0.
 TRANSLA (  2.543   -1.271    1.271)     TRANSLA (  0.000    0.000    0.000)
[...]
  XX   1   2   3   4   5   6  10  11  13  14  17  18  20  21  22  25  26  27 
 <><><><><><><><><><><><><><><><><><><><><><><><><><><><><><><><><><><>
  CLASS :         3968     MULTIPLICITY :1296     N. OF SYMM. OP. :   1
  TI   7   8   9  12  13  19  23  26  27
  --------------------------------------------------------------------------    
  XX   1   2   3   4   5   6  10  11  14  15  16  17  18  20  21  22  24  25 
 <><><><><><><><><><><><><><><><><><><><><><><><><><><><><><><><><><><>
  CLASS :         3969     MULTIPLICITY : 648     N. OF SYMM. OP. :   2
  TI   7   8   9  12  13  19  23  25  26
  --------------------------------------------------------------------------    
  XX   1   2   3   4   5   6  10  11  14  15  16  17  18  20  21  22  24  27 
 <><><><><><><><><><><><><><><><><><><><><><><><><><><><><><><><><><><>
  CLASS :         3970     MULTIPLICITY : 648     N. OF SYMM. OP. :   2
  TI   7   8   9  12  13  19  23  24  27
  --------------------------------------------------------------------------    
  XX   1   2   3   4   5   6  10  11  14  15  16  17  18  20  21  22  25  26 
 <><><><><><><><><><><><><><><><><><><><><><><><><><><><><><><><><><><>
  CLASS :         3971     MULTIPLICITY :1296     N. OF SYMM. OP. :   1
  TI   7   8   9  12  13  19  23  24  26
  --------------------------------------------------------------------------    
  XX   1   2   3   4   5   6  10  11  14  15  16  17  18  20  21  22  25  27 
 <><><><><><><><><><><><><><><><><><><><><><><><><><><><><><><><><><><>
  CLASS :         3972     MULTIPLICITY :1296     N. OF SYMM. OP. :   1
  TI   7   8   9  12  13  19  23  24  25
  --------------------------------------------------------------------------    
  XX   1   2   3   4   5   6  10  11  14  15  16  17  18  20  21  22  26  27 
 <><><><><><><><><><><><><><><><><><><><><><><><><><><><><><><><><><><>
  CLASS :         3973     MULTIPLICITY : 324     N. OF SYMM. OP. :   4
  TI   7   8   9  12  13  19  22  23  24
  --------------------------------------------------------------------------    
  XX   1   2   3   4   5   6  10  11  14  15  16  17  18  20  21  25  26  27 
 <><><><><><><><><><><><><><><><><><><><><><><><><><><><><><><><><><><>
  CLASS :         3974     MULTIPLICITY :1296     N. OF SYMM. OP. :   1
  TI   7   8   9  12  13  19  21  23  27
  --------------------------------------------------------------------------    
  XX   1   2   3   4   5   6  10  11  14  15  16  17  18  20  22  24  25  26 
 <><><><><><><><><><><><><><><><><><><><><><><><><><><><><><><><><><><>
  CLASS :         3975     MULTIPLICITY :1296     N. OF SYMM. OP. :   1
  TI   7   8   9  12  13  19  21  23  26
  --------------------------------------------------------------------------    
  XX   1   2   3   4   5   6  10  11  14  15  16  17  18  20  22  24  25  27 
 <><><><><><><><><><><><><><><><><><><><><><><><><><><><><><><><><><><>
  CLASS :         3976     MULTIPLICITY : 648     N. OF SYMM. OP. :   2
  TI   7   8   9  12  13  19  21  23  25
  --------------------------------------------------------------------------    
  XX   1   2   3   4   5   6  10  11  14  15  16  17  18  20  22  24  26  27 
 <><><><><><><><><><><><><><><><><><><><><><><><><><><><><><><><><><><>
  CLASS :         3977     MULTIPLICITY :1296     N. OF SYMM. OP. :   1
  TI   7   8   9  12  13  19  21  22  23
  --------------------------------------------------------------------------    
  XX   1   2   3   4   5   6  10  11  14  15  16  17  18  20  24  25  26  27 
 <><><><><><><><><><><><><><><><><><><><><><><><><><><><><><><><><><><>
  CLASS :         3978     MULTIPLICITY : 324     N. OF SYMM. OP. :   4
  TI   7   8   9  12  13  19  20  21  23
  --------------------------------------------------------------------------    
  XX   1   2   3   4   5   6  10  11  14  15  16  17  18  22  24  25  26  27 
 <><><><><><><><><><><><><><><><><><><><><><><><><><><><><><><><><><><>
  CLASS :         3979     MULTIPLICITY : 324     N. OF SYMM. OP. :   4
  TI   7   8   9  12  13  18  19  23  26
  --------------------------------------------------------------------------    
  XX   1   2   3   4   5   6  10  11  14  15  16  17  20  21  22  24  25  27 
 <><><><><><><><><><><><><><><><><><><><><><><><><><><><><><><><><><><>
  CLASS :         3980     MULTIPLICITY : 648     N. OF SYMM. OP. :   2
  TI   7   8   9  12  13  18  19  23  25
  --------------------------------------------------------------------------    
  XX   1   2   3   4   5   6  10  11  14  15  16  17  20  21  22  24  26  27 
 <><><><><><><><><><><><><><><><><><><><><><><><><><><><><><><><><><><>
  CLASS :         3981     MULTIPLICITY :1296     N. OF SYMM. OP. :   1
  TI   7   8   9  12  13  18  19  22  23
  --------------------------------------------------------------------------    
  XX   1   2   3   4   5   6  10  11  14  15  16  17  20  21  24  25  26  27 
 <><><><><><><><><><><><><><><><><><><><><><><><><><><><><><><><><><><>
  CLASS :         3982     MULTIPLICITY : 648     N. OF SYMM. OP. :   2
  TI   7   8   9  12  13  18  19  20  23
  --------------------------------------------------------------------------    
  XX   1   2   3   4   5   6  10  11  14  15  16  17  21  22  24  25  26  27 
 <><><><><><><><><><><><><><><><><><><><><><><><><><><><><><><><><><><>
  CLASS :         3983     MULTIPLICITY : 324     N. OF SYMM. OP. :   4
  TI   7   8   9  12  13  17  19  23  27
  --------------------------------------------------------------------------    
  XX   1   2   3   4   5   6  10  11  14  15  16  18  20  21  22  24  25  26 
 <><><><><><><><><><><><><><><><><><><><><><><><><><><><><><><><><><><>
  CLASS :         3984     MULTIPLICITY : 648     N. OF SYMM. OP. :   2
  TI   7   8   9  12  13  17  19  23  24
  --------------------------------------------------------------------------    
  XX   1   2   3   4   5   6  10  11  14  15  16  18  20  21  22  25  26  27 
 <><><><><><><><><><><><><><><><><><><><><><><><><><><><><><><><><><><>
  CLASS :         3985     MULTIPLICITY : 162     N. OF SYMM. OP. :   8
  TI   7   8   9  12  13  15  19  20  23
  --------------------------------------------------------------------------    
  XX   1   2   3   4   5   6  10  11  14  16  17  18  21  22  24  25  26  27 
 <><><><><><><><><><><><><><><><><><><><><><><><><><><><><><><><><><><>
  CLASS :         3986     MULTIPLICITY : 324     N. OF SYMM. OP. :   4
  TI   7   8   9  11  12  15  21  22  23
  --------------------------------------------------------------------------    
  XX   1   2   3   4   5   6  10  13  14  16  17  18  19  20  24  25  26  27 
 <><><><><><><><><><><><><><><><><><><><><><><><><><><><><><><><><><><>
  CLASS :         3987     MULTIPLICITY : 648     N. OF SYMM. OP. :   2
  TI   7   8   9  11  12  15  20  22  23
  --------------------------------------------------------------------------    
  XX   1   2   3   4   5   6  10  13  14  16  17  18  19  21  24  25  26  27 
 <><><><><><><><><><><><><><><><><><><><><><><><><><><><><><><><><><><>
  CLASS :         3988     MULTIPLICITY : 324     N. OF SYMM. OP. :   4
  TI   7   8   9  11  12  15  19  22  23
  --------------------------------------------------------------------------    
  XX   1   2   3   4   5   6  10  13  14  16  17  18  20  21  24  25  26  27 
 <><><><><><><><><><><><><><><><><><><><><><><><><><><><><><><><><><><>
  CLASS :         3989     MULTIPLICITY : 162     N. OF SYMM. OP. :   8
  TI   7   8   9  11  12  14  20  22  23
  --------------------------------------------------------------------------    
  XX   1   2   3   4   5   6  10  13  15  16  17  18  19  21  24  25  26  27 
 <><><><><><><><><><><><><><><><><><><><><><><><><><><><><><><><><><><>
  CLASS :         3990     MULTIPLICITY :  18     N. OF SYMM. OP. :  72
  TI   7   8   9  10  11  12  22  23  24
  --------------------------------------------------------------------------    
  XX   1   2   3   4   5   6  13  14  15  16  17  18  19  20  21  25  26  27 
   WARNING : THIS CONFIG CAN BE OBTAINED WITH A SMALLER CELL
 <><><><><><><><><><><><><><><><><><><><><><><><><><><><><><><><><><><>
  CLASS :         3991     MULTIPLICITY : 108     N. OF SYMM. OP. :  12
  TI   6   8   9  12  16  18  19  23  27
  --------------------------------------------------------------------------    
  XX   1   2   3   4   5   7  10  11  13  14  15  17  20  21  22  24  25  26 
 <><><><><><><><><><><><><><><><><><><><><><><><><><><><><><><><><><><>
  CLASS :         3992     MULTIPLICITY : 648     N. OF SYMM. OP. :   2
  TI   6   8   9  12  16  18  19  23  26
  --------------------------------------------------------------------------    
  XX   1   2   3   4   5   7  10  11  13  14  15  17  20  21  22  24  25  27 
 <><><><><><><><><><><><><><><><><><><><><><><><><><><><><><><><><><><>
  CLASS :         3993     MULTIPLICITY : 648     N. OF SYMM. OP. :   2
  TI   6   8   9  12  16  17  18  19  23
  --------------------------------------------------------------------------    
  XX   1   2   3   4   5   7  10  11  13  14  15  20  21  22  24  25  26  27 
 <><><><><><><><><><><><><><><><><><><><><><><><><><><><><><><><><><><>
  CLASS :         3994     MULTIPLICITY : 162     N. OF SYMM. OP. :   8
  TI   6   8   9  12  13  20  21  25  26
  --------------------------------------------------------------------------    
  XX   1   2   3   4   5   7  10  11  14  15  16  17  18  19  22  23  24  27 
 <><><><><><><><><><><><><><><><><><><><><><><><><><><><><><><><><><><>
  CLASS :         3995     MULTIPLICITY : 648     N. OF SYMM. OP. :   2
  TI   6   8   9  12  13  19  23  25  26
  --------------------------------------------------------------------------    
  XX   1   2   3   4   5   7  10  11  14  15  16  17  18  20  21  22  24  27 
 <><><><><><><><><><><><><><><><><><><><><><><><><><><><><><><><><><><>
  CLASS :         3996     MULTIPLICITY :1296     N. OF SYMM. OP. :   1
  TI   6   8   9  12  13  19  23  24  25
  --------------------------------------------------------------------------    
  XX   1   2   3   4   5   7  10  11  14  15  16  17  18  20  21  22  26  27 
 <><><><><><><><><><><><><><><><><><><><><><><><><><><><><><><><><><><>
  CLASS :         3997     MULTIPLICITY :1296     N. OF SYMM. OP. :   1
  TI   6   8   9  12  13  18  19  23  25
  --------------------------------------------------------------------------    
  XX   1   2   3   4   5   7  10  11  14  15  16  17  20  21  22  24  26  27 
 <><><><><><><><><><><><><><><><><><><><><><><><><><><><><><><><><><><>
  CLASS :         3998     MULTIPLICITY : 648     N. OF SYMM. OP. :   2
  TI   6   8   9  12  13  16  18  19  23
  --------------------------------------------------------------------------    
  XX   1   2   3   4   5   7  10  11  14  15  17  20  21  22  24  25  26  27 
 <><><><><><><><><><><><><><><><><><><><><><><><><><><><><><><><><><><>
  CLASS :         3999     MULTIPLICITY : 324     N. OF SYMM. OP. :   4
  TI   6   8   9  11  13  17  19  21  22
  --------------------------------------------------------------------------    
  XX   1   2   3   4   5   7  10  12  14  15  16  18  20  23  24  25  26  27 
 <><><><><><><><><><><><><><><><><><><><><><><><><><><><><><><><><><><>
  CLASS :         4000     MULTIPLICITY : 648     N. OF SYMM. OP. :   2
  TI   6   8   9  11  13  16  21  25  26
  --------------------------------------------------------------------------    
  XX   1   2   3   4   5   7  10  12  14  15  17  18  19  20  22  23  24  27 
 <><><><><><><><><><><><><><><><><><><><><><><><><><><><><><><><><><><>
  CLASS :         4001     MULTIPLICITY : 648     N. OF SYMM. OP. :   2
  TI   6   8   9  11  13  16  21  24  25
  --------------------------------------------------------------------------    
  XX   1   2   3   4   5   7  10  12  14  15  17  18  19  20  22  23  26  27 
 <><><><><><><><><><><><><><><><><><><><><><><><><><><><><><><><><><><>
  CLASS :         4002     MULTIPLICITY : 648     N. OF SYMM. OP. :   2
  TI   6   8   9  11  13  16  19  21  25
  --------------------------------------------------------------------------    
  XX   1   2   3   4   5   7  10  12  14  15  17  18  20  22  23  24  26  27 
 <><><><><><><><><><><><><><><><><><><><><><><><><><><><><><><><><><><>
  CLASS :         4003     MULTIPLICITY : 648     N. OF SYMM. OP. :   2
  TI   6   8   9  11  13  16  19  21  23
  --------------------------------------------------------------------------    
  XX   1   2   3   4   5   7  10  12  14  15  17  18  20  22  24  25  26  27 
 <><><><><><><><><><><><><><><><><><><><><><><><><><><><><><><><><><><>
  CLASS :         4004     MULTIPLICITY : 108     N. OF SYMM. OP. :  12
  TI   6   8   9  11  13  14  19  21  25
  --------------------------------------------------------------------------    
  XX   1   2   3   4   5   7  10  12  15  16  17  18  20  22  23  24  26  27 
   WARNING : THIS CONFIG CAN BE OBTAINED WITH A SMALLER CELL
 <><><><><><><><><><><><><><><><><><><><><><><><><><><><><><><><><><><>
  CLASS :         4005     MULTIPLICITY : 324     N. OF SYMM. OP. :   4
  TI   6   8   9  11  12  13  16  19  23
  --------------------------------------------------------------------------    
  XX   1   2   3   4   5   7  10  14  15  17  18  20  21  22  24  25  26  27 
 <><><><><><><><><><><><><><><><><><><><><><><><><><><><><><><><><><><>
  CLASS :         4006     MULTIPLICITY : 216     N. OF SYMM. OP. :   6
  TI   6   8   9  10  11  13  21  22  26
  --------------------------------------------------------------------------    
  XX   1   2   3   4   5   7  12  14  15  16  17  18  19  20  23  24  25  27 
 <><><><><><><><><><><><><><><><><><><><><><><><><><><><><><><><><><><>
  CLASS :         4007     MULTIPLICITY : 324     N. OF SYMM. OP. :   4
  TI   6   8   9  10  11  13  19  26  27
  --------------------------------------------------------------------------    
  XX   1   2   3   4   5   7  12  14  15  16  17  18  20  21  22  23  24  25 
 <><><><><><><><><><><><><><><><><><><><><><><><><><><><><><><><><><><>
  CLASS :         4008     MULTIPLICITY :  27     N. OF SYMM. OP. :  48
  TI   6   8   9  10  11  13  19  23  27
  --------------------------------------------------------------------------    
  XX   1   2   3   4   5   7  12  14  15  16  17  18  20  21  22  24  25  26 
 <><><><><><><><><><><><><><><><><><><><><><><><><><><><><><><><><><><>
  CLASS :         4009     MULTIPLICITY : 162     N. OF SYMM. OP. :   8
  TI   6   8   9  10  11  13  18  19  27
  --------------------------------------------------------------------------    
  XX   1   2   3   4   5   7  12  14  15  16  17  20  21  22  23  24  25  26 
 <><><><><><><><><><><><><><><><><><><><><><><><><><><><><><><><><><><>
  CLASS :         4010     MULTIPLICITY :1296     N. OF SYMM. OP. :   1
  TI   6   7  11  16  17  21  22  23  27
  --------------------------------------------------------------------------    
  XX   1   2   3   4   5   8   9  10  12  13  14  15  18  19  20  24  25  26 
 <><><><><><><><><><><><><><><><><><><><><><><><><><><><><><><><><><><>
  CLASS :         4011     MULTIPLICITY : 324     N. OF SYMM. OP. :   4
  TI   6   7  11  16  17  21  22  23  25
  --------------------------------------------------------------------------    
  XX   1   2   3   4   5   8   9  10  12  13  14  15  18  19  20  24  26  27 
 <><><><><><><><><><><><><><><><><><><><><><><><><><><><><><><><><><><>
  CLASS :         4012     MULTIPLICITY : 648     N. OF SYMM. OP. :   2
  TI   6   7  11  16  17  21  22  23  24
  --------------------------------------------------------------------------    
  XX   1   2   3   4   5   8   9  10  12  13  14  15  18  19  20  25  26  27 
 <><><><><><><><><><><><><><><><><><><><><><><><><><><><><><><><><><><>
  CLASS :         4013     MULTIPLICITY : 648     N. OF SYMM. OP. :   2
  TI   6   7  11  16  17  19  21  23  27
  --------------------------------------------------------------------------    
  XX   1   2   3   4   5   8   9  10  12  13  14  15  18  20  22  24  25  26 
 <><><><><><><><><><><><><><><><><><><><><><><><><><><><><><><><><><><>
  CLASS :         4014     MULTIPLICITY : 648     N. OF SYMM. OP. :   2
  TI   6   7  11  16  17  19  21  23  26
  --------------------------------------------------------------------------    
  XX   1   2   3   4   5   8   9  10  12  13  14  15  18  20  22  24  25  27 
 <><><><><><><><><><><><><><><><><><><><><><><><><><><><><><><><><><><>
  CLASS :         4015     MULTIPLICITY : 324     N. OF SYMM. OP. :   4
  TI   6   7  11  16  17  19  21  23  25
  --------------------------------------------------------------------------    
  XX   1   2   3   4   5   8   9  10  12  13  14  15  18  20  22  24  26  27 
 <><><><><><><><><><><><><><><><><><><><><><><><><><><><><><><><><><><>
  CLASS :         4016     MULTIPLICITY :1296     N. OF SYMM. OP. :   1
  TI   6   7  11  16  17  19  21  23  24
  --------------------------------------------------------------------------    
  XX   1   2   3   4   5   8   9  10  12  13  14  15  18  20  22  25  26  27 
 <><><><><><><><><><><><><><><><><><><><><><><><><><><><><><><><><><><>
  CLASS :         4017     MULTIPLICITY : 648     N. OF SYMM. OP. :   2
  TI   6   7  11  16  17  19  21  22  23
  --------------------------------------------------------------------------    
  XX   1   2   3   4   5   8   9  10  12  13  14  15  18  20  24  25  26  27 
 <><><><><><><><><><><><><><><><><><><><><><><><><><><><><><><><><><><>
  CLASS :         4018     MULTIPLICITY :1296     N. OF SYMM. OP. :   1
  TI   6   7  11  16  17  19  20  21  23
  --------------------------------------------------------------------------    
  XX   1   2   3   4   5   8   9  10  12  13  14  15  18  22  24  25  26  27 
 <><><><><><><><><><><><><><><><><><><><><><><><><><><><><><><><><><><>
  CLASS :         4019     MULTIPLICITY : 648     N. OF SYMM. OP. :   2
  TI   6   7  11  15  17  20  21  22  25
  --------------------------------------------------------------------------    
  XX   1   2   3   4   5   8   9  10  12  13  14  16  18  19  23  24  26  27 
 <><><><><><><><><><><><><><><><><><><><><><><><><><><><><><><><><><><>
  CLASS :         4020     MULTIPLICITY : 648     N. OF SYMM. OP. :   2
  TI   6   7  11  15  17  19  20  21  22
  --------------------------------------------------------------------------    
  XX   1   2   3   4   5   8   9  10  12  13  14  16  18  23  24  25  26  27 
 <><><><><><><><><><><><><><><><><><><><><><><><><><><><><><><><><><><>
  CLASS :         4021     MULTIPLICITY : 162     N. OF SYMM. OP. :   8
  TI   6   7   9  11  14  16  19  21  23
  --------------------------------------------------------------------------    
  XX   1   2   3   4   5   8  10  12  13  15  17  18  20  22  24  25  26  27 
 <><><><><><><><><><><><><><><><><><><><><><><><><><><><><><><><><><><>
  CLASS :         4022     MULTIPLICITY : 108     N. OF SYMM. OP. :  12
  TI   6   7   9  11  12  17  19  22  23
  --------------------------------------------------------------------------    
  XX   1   2   3   4   5   8  10  13  14  15  16  18  20  21  24  25  26  27 
   WARNING : THIS CONFIG CAN BE OBTAINED WITH A SMALLER CELL
 <><><><><><><><><><><><><><><><><><><><><><><><><><><><><><><><><><><>
  CLASS :         4023     MULTIPLICITY :  72     N. OF SYMM. OP. :  18
  TI   6   7   9  10  11  16  20  23  24
  --------------------------------------------------------------------------    
  XX   1   2   3   4   5   8  12  13  14  15  17  18  19  21  22  25  26  27 
   WARNING : THIS CONFIG CAN BE OBTAINED WITH A SMALLER CELL
 ===============================================================================
 INFORMATION **** CONFCOUNT **** CALCULATION COMPLETE
 TTTTTTTTTTTTTTTTTTTTTTTTTTTTTT END         TELAPSE        3.05 TCPU        2.84
 EEEEEEEEEE TERMINATION  DATE 10 02 2022 TIME 14:52:14.3
NODE    0 CPU TIME =         2.838
    TOTAL CPU TIME =         2.838
