date Tue 1 Feb 2022 13:59:47 GMT
master hostname MacBook-Pro-3.local
system Darwin MacBook-Pro-3.local 20.6.0 Darwin Kernel Version 20.6.0: Wed Nov 10 22:23:05 PST 2021; root:xnu-7195.141.14~1/RELEASE_ARM64_T8101 arm64
user brunocamino
output data in /Users/brunocamino/Desktop/Imperial/crystal-code-tools/CRYSTALpy/examples/data/Mg2O2_O1_100_1.outp
properties in /Users/brunocamino/crystal
input data in /Users/brunocamino/Desktop/Imperial/crystal-code-tools/CRYSTALpy/examples/data/Mg2O2_O1_100_1.d3
temporary directory /Users/brunocamino/crystal/tmp
wave function data from /Users/brunocamino/Desktop/Imperial/crystal-code-tools/CRYSTALpy/examples/data/Mg2O2_O1_100_1.f9 not found or empty
wave function formatted data from /Users/brunocamino/Desktop/Imperial/crystal-code-tools/CRYSTALpy/examples/data/Mg2O2_O1_100_1.f98
RDFMWF
FMWF
END

         
 *******************************************************************************
 *                                                                             *
 *                               CRYSTAL17                                     *
 *                      public : 1.0.2 - March 1st, 2018                       *
 *                       HTTP://WWW.CRYSTAL.UNITO.IT                           *
 *                                                                             *
 *                              MAIN AUTHORS                                   *
 *                                                                             *
 *  R. DOVESI(1,11), V.R. SAUNDERS(2), C. ROETTI(1,11), R. ORLANDO(1,11),      *
 *  C.M. ZICOVICH-WILSON(1,3), F. PASCALE(4), B. CIVALLERI(1,11),              *
 *  K. DOLL(5), N.M. HARRISON(2,6), I.J. BUSH(7), Ph. D'ARCO(8),               *
 *  M. LLUNELL(9), M. CAUSA'(10), Y. NOEL(8), L. MASCHIO(1,11), A. ERBA(1,11)  *
 *  M. RE'RAT(14), S. CASASSA(1,11)                                            *
 *                                                                             *
 *        CONTRIBUTIONS TO THE CODE HAVE ALSO BEEN GIVEN BY                    *
 *                                                                             *
 *  M. FERRABONE(1,11), M. DE LA PIERRE(1,11), M. FERRERO(1,11),               *
 *  J. BAIMA(1,11), E. ALBANESE(1,11), M.F. PEINTINGER(12), R. BAST(13),       *
 *  B. KIRTMAN(15), V. LACIVITA(1,11), R. DEMICHELIS(1,16)                     *
 *  G. BRANDEBURG(17), S. SALUSTRO(1,11), G. SANSONE(1,11)                     *
 *  M.T. RUGGIERO(18)                                                          *
 *                                                                             *
 * (1) THEORETICAL CHEMISTRY GROUP - UNIVERSITA' DI TORINO - TORINO (ITALY)    *
 * (2) COMPUTATIONAL SCIENCE & ENGINEERING DEPARTMENT - STFC DARESBURY (UK)    *
 * (3) UNIVERSIDAD AUTONOMA DEL ESTADO DE MORELOS - CUERNAVACA (MEXICO)        *
 * (4) UNIVERSITE' DE LORRAINE - NANCY (FRANCE)                                *
 * (5) UNIVERSITAET STUTTGART- STUTTGART (GERMANY)                             *
 * (6) IMPERIAL COLLEGE - LONDON (UK)                                          *
 * (7) OXFORD E-RESEARCH CENTRE - OXFORD (UK)                                  *
 * (8) UPMC - SORBONNE UNIVERSITES - PARIS (FRANCE)                            *
 * (9) UNIVERSIDAD DE BARCELONA - BARCELONA (SPAIN)                            *
 *(10) UNIVERSITA' DI NAPOLI "FEDERICO II" - NAPOLI (ITALY)                    *
 *(11) NIS - NANOSTRUCTURED INTERFACES AND SURFACES - TORINO (ITALY)           *
 *(12) MPI FUER CHEMISCHE ENERGIEKONVERSION - MUELHEIM AN DER RUHR (GERMANY)   *
 *(13) UNIVERSITY OF TROMSO - TROMSO (NORWAY)                                  *
 *(14) UNIVERSITE' DE PAU ET DES PAYS DE L'ADOUR - PAU (FRANCE)                *
 *(15) UNIVERSITY OF CALIFORNIA SANTA BARBARA - SANTA BARBARA (USA)            *
 *(16) CURTIN UNIVERSITY - PERTH (AUSTRALIA)                                   *
 *(17) UNIVERSITY COLLEGE LONDON - LONDON (UK)                                 *
 *(18) CAMBRIDGE UNIVERSITY - CAMBRIDGE (UK)                                   *
 *                                                                             *
 *******************************************************************************
 EEEEEEEEEE STARTING  DATE 01 02 2022 TIME 13:59:47.5

         
 *******************************************************************************
 *                                                                             *
 * *                                                                           *
 *               FORMATTED WAVE FUNCTION DATA FROM FILE fort.98                *
 *               CONVERTED TO BINARY AND WRITTEN IN FILE fort.9                *
 *                                                                             *
 *******************************************************************************

 *******************************************************************************
 Adso                                                                            
 CRYSTAL - PROPERTIES - TYPE OF CALCULATION :  RESTRICTED CLOSED SHELL
 *******************************************************************************
 KOHN-SHAM HAMILTONIAN

 (EXCHANGE)[CORRELATION] FUNCTIONAL:(BECKE 88)[LEE-YANG-PARR]

 NON-LOCAL WEIGHTING FACTOR (EXCHANGE) =           0.9000
 NON-LOCAL WEIGHTING FACTOR [CORRELATION] =        0.8100

 HYBRID EXCHANGE - PERCENTAGE OF FOCK EXCHANGE    20.0000

 DIRECT LATTICE VECTOR COMPONENTS (ANGSTROM)
         3.00979    0.00000    0.00000
        -0.00000    3.00979    0.00000
         0.00000    0.00000  500.00000

 LATTICE PARAMETERS  (ANGSTROM AND DEGREES) - PRIMITIVE CELL
       A          B          C         ALPHA      BETA     GAMMA        VOLUME
    3.00979    3.00979  500.00000     90.0000   90.0000   90.0000       9.05883
 *******************************************************************************
 N. OF ATOMS PER CELL         6 COULOMB OVERLAP TOL          (T1) 10**   -7
 NUMBER OF SHELLS            22 COULOMB PENETRATION TOL      (T2) 10**   -7
 NUMBER OF AO                38 EXCHANGE OVERLAP TOL         (T3) 10**   -7
 N. OF ELECTRONS PER CELL    56 EXCHANGE PSEUDO OVP (F(G))   (T4) 10**   -7
 CORE ELECTRONS PER CELL     28 EXCHANGE PSEUDO OVP (P(G))   (T5) 10**  -14
 N. OF SYMMETRY OPERATORS     8 POLE ORDER IN MONO ZONE                   4
 *******************************************************************************
   ATOM N.AT.  SHELL    X(A)      Y(A)      Z(A)      EXAD       N.ELECT.
 *******************************************************************************
    1   12 MG    5    -0.000     1.505     1.064   1.524E-01      11.526
    2   12 MG    5     1.505     0.000    -1.064   1.524E-01      11.526
    3    8 O     3    -0.000     1.505    -1.064   3.804E-01       8.599
    4    8 O     3     1.505     0.000     1.064   3.804E-01       8.599
    5    8 O     3     1.505     0.000    -3.064   3.804E-01       7.875
    6    8 O     3    -0.000     1.505     3.064   3.804E-01       7.875
 *******************************************************************************
 DE(K)                   0.000E+00  ENERGY LEVEL SHIFTING        0.00000
 TOTAL ENERGY -6.9166616360307E+02  CONVERGENCE ON ENER        6.347E-06
 KIN. ENERGY   6.7946497879029E+02  VIR. COEFF.           1.03192520E+00
 N. OF SCF CYCLES               24  FERMI ENERGY              -0.160E+00
 WEIGHT OF F(I) IN F(I+1)      70
 SHRINK. FACT.(MONKH.)    12 12  1  SHRINKING FACTOR(GILAT NET)       24
 NUMBER OF K POINTS IN THE IBZ  28  CELL VOLUME (A.U.)         32.349662
 *******************************************************************************

 *******************************************************************************
 LOCAL ATOMIC FUNCTIONS BASIS SET
 *******************************************************************************
   ATOM   X(AU)   Y(AU)   Z(AU)  N. TYPE  EXPONENT  S COEF   P COEF   D/F/G COEF
 *******************************************************************************
   1 MG  -0.000   2.844   2.011
                                  1 S  
                                         2.992E+02 1.925E+01 0.000E+00 0.000E+00
                                         5.451E+01 1.861E+01 0.000E+00 0.000E+00
                                         1.475E+01 5.801E+00 0.000E+00 0.000E+00
                                  2 S  
                                         1.512E+01-1.329E+00 0.000E+00 0.000E+00
                                         3.514E+00 1.777E+00 0.000E+00 0.000E+00
                                         1.143E+00 1.341E+00 0.000E+00 0.000E+00
                                  3 S  
                                         1.395E+00-4.888E-01 0.000E+00 0.000E+00
                                         3.893E-01 1.927E-01 0.000E+00 0.000E+00
                                         1.524E-01 3.806E-01 0.000E+00 0.000E+00
                           4-     6 P  
                                         1.512E+01 0.000E+00 1.612E+01 0.000E+00
                                         3.514E+00 0.000E+00 1.014E+01 0.000E+00
                                         1.143E+00 0.000E+00 1.606E+00 0.000E+00
                           7-     9 P  
                                         1.395E+00 0.000E+00 5.567E-02 0.000E+00
                                         3.893E-01 0.000E+00 6.345E-01 0.000E+00
                                         1.524E-01 0.000E+00 1.525E-01 0.000E+00
   2 MG   2.844   0.000  -2.011
   3 O   -0.000   2.844  -2.011
                                 19 S  
                                         1.307E+02 1.034E+01 0.000E+00 0.000E+00
                                         2.381E+01 1.000E+01 0.000E+00 0.000E+00
                                         6.444E+00 3.117E+00 0.000E+00 0.000E+00
                                 20 S  
                                         5.033E+00-5.823E-01 0.000E+00 0.000E+00
                                         1.170E+00 7.788E-01 0.000E+00 0.000E+00
                                         3.804E-01 5.878E-01 0.000E+00 0.000E+00
                          21-    23 P  
                                         5.033E+00 0.000E+00 4.075E+00 0.000E+00
                                         1.170E+00 0.000E+00 2.562E+00 0.000E+00
                                         3.804E-01 0.000E+00 4.059E-01 0.000E+00
   4 O    2.844   0.000   2.011
   5 O    2.844   0.000  -5.790
   6 O   -0.000   2.844   5.790
 *******************************************************************************
 N. OF ATOMS PER CELL         6  COULOMB OVERLAP TOL         (T1) 10**   -7
 NUMBER OF SHELLS            22  COULOMB PENETRATION TOL     (T2) 10**   -7
 NUMBER OF AO                38  EXCHANGE OVERLAP TOL        (T3) 10**   -7
 N. OF ELECTRONS PER CELL    56  EXCHANGE PSEUDO OVP (F(G))  (T4) 10**   -7
 CORE ELECTRONS PER CELL     28  EXCHANGE PSEUDO OVP (P(G))  (T5) 10**  -14
 N. OF SYMMETRY OPERATORS     8  POLE ORDER IN MONO ZONE                  4
 *******************************************************************************
 TYPE OF CALCULATION :  RESTRICTED CLOSED SHELL
 KOHN-SHAM HAMILTONIAN

 (EXCHANGE)[CORRELATION] FUNCTIONAL:(BECKE 88)[LEE-YANG-PARR]

 NON-LOCAL WEIGHTING FACTOR (EXCHANGE) =           0.9000
 NON-LOCAL WEIGHTING FACTOR [CORRELATION] =        0.8100

 HYBRID EXCHANGE - PERCENTAGE OF FOCK EXCHANGE    20.0000

 *******************************************************************************
 Adso                                                                            
 CRYSTAL - PROPERTIES - TYPE OF CALCULATION :  RESTRICTED CLOSED SHELL
 *******************************************************************************
 KOHN-SHAM HAMILTONIAN

 (EXCHANGE)[CORRELATION] FUNCTIONAL:(BECKE 88)[LEE-YANG-PARR]

 NON-LOCAL WEIGHTING FACTOR (EXCHANGE) =           0.9000
 NON-LOCAL WEIGHTING FACTOR [CORRELATION] =        0.8100

 HYBRID EXCHANGE - PERCENTAGE OF FOCK EXCHANGE    20.0000

 DIRECT LATTICE VECTOR COMPONENTS (ANGSTROM)
         3.00979    0.00000    0.00000
        -0.00000    3.00979    0.00000
         0.00000    0.00000  500.00000

 LATTICE PARAMETERS  (ANGSTROM AND DEGREES) - PRIMITIVE CELL
       A          B          C         ALPHA      BETA     GAMMA        VOLUME
    3.00979    3.00979  500.00000     90.0000   90.0000   90.0000       9.05883
 *******************************************************************************
 N. OF ATOMS PER CELL         6 COULOMB OVERLAP TOL          (T1) 10**   -7
 NUMBER OF SHELLS            22 COULOMB PENETRATION TOL      (T2) 10**   -7
 NUMBER OF AO                38 EXCHANGE OVERLAP TOL         (T3) 10**   -7
 N. OF ELECTRONS PER CELL    56 EXCHANGE PSEUDO OVP (F(G))   (T4) 10**   -7
 CORE ELECTRONS PER CELL     28 EXCHANGE PSEUDO OVP (P(G))   (T5) 10**  -14
 N. OF SYMMETRY OPERATORS     8 POLE ORDER IN MONO ZONE                   4
 *******************************************************************************
   ATOM N.AT.  SHELL    X(A)      Y(A)      Z(A)      EXAD       N.ELECT.
 *******************************************************************************
    1   12 MG    5    -0.000     1.505     1.064   1.524E-01      11.526
    2   12 MG    5     1.505     0.000    -1.064   1.524E-01      11.526
    3    8 O     3    -0.000     1.505    -1.064   3.804E-01       8.599
    4    8 O     3     1.505     0.000     1.064   3.804E-01       8.599
    5    8 O     3     1.505     0.000    -3.064   3.804E-01       7.875
    6    8 O     3    -0.000     1.505     3.064   3.804E-01       7.875
 *******************************************************************************
 DE(K)                   0.000E+00  ENERGY LEVEL SHIFTING        0.00000
 TOTAL ENERGY -6.9166616360307E+02  CONVERGENCE ON ENER        6.347E-06
 KIN. ENERGY   6.7946497879029E+02  VIR. COEFF.           1.03192520E+00
 N. OF SCF CYCLES               24  FERMI ENERGY              -0.160E+00
 WEIGHT OF F(I) IN F(I+1)      70
 SHRINK. FACT.(MONKH.)    12 12  1  SHRINKING FACTOR(GILAT NET)       24
 NUMBER OF K POINTS IN THE IBZ  28  CELL VOLUME (A.U.)         32.349662
 *******************************************************************************

 GCALCO - MAX INDICES DIRECT LATTICE VECTOR    83    83     0
 NO.OF VECTORS CREATED 6999 STARS  686 RMAX   268.28716 BOHR
 TTTTTTTTTTTTTTTTTTTTTTTTTTTTTT gordsh1     TELAPSE        0.02 TCPU        0.01

 MATRIX SIZE: P(G)   21446, F(G)    4750, P(G) IRR    1978, F(G) IRR     973
 MAX G-VECTOR INDEX FOR 1- AND 2-ELECTRON INTEGRALS  61


 CAPPA:IS1 12;IS2 12;IS3  1; K PTS MONK NET  28; SYMMOPS:K SPACE  16;G SPACE   8

 TTTTTTTTTTTTTTTTTTTTTTTTTTTTTT FMWF        TELAPSE        0.04 TCPU        0.02
 ENDPROP   
 TTTTTTTTTTTTTTTTTTTTTTTTTTTTTT END         TELAPSE        0.04 TCPU        0.02
 EEEEEEEEEE TERMINATION  DATE 01 02 2022 TIME 13:59:47.5
Tue  1 Feb 2022 13:59:47 GMT
Contents of temporary directory:
total 1456
-rw-r--r--  1 brunocamino  admin   38008  1 Feb 13:59 fort.11
-rw-r--r--  1 brunocamino  admin  171576  1 Feb 13:59 fort.13
-rw-r--r--  1 brunocamino  admin   38008  1 Feb 13:59 fort.3
-rw-r--r--  1 brunocamino  admin  137444  1 Feb 13:59 fort.9
-rw-r--r--  1 brunocamino  admin  349855  1 Feb 13:59 fort.98
file fort.98 saved as /Users/brunocamino/Desktop/Imperial/crystal-code-tools/CRYSTALpy/examples/data/Mg2O2_O1_100_1.f98
file fort.13 saved as /Users/brunocamino/Desktop/Imperial/crystal-code-tools/CRYSTALpy/examples/data/Mg2O2_O1_100_1.f13
removing temporary directories /Users/brunocamino/crystal/tmp
