Pre-Calc Summary
--------------------------------------------
  date:                Thu  1 Aug 18:45:24 BST 2024
  hostname:            nhpc101
  system:              Linux nhpc101 5.3.18-150300.59.76-default #1 SMP Thu Jun 16 04:23:47 UTC 2022 (2cc2ade) x86_64 x86_64 x86_64 GNU/Linux
  user:                huanyu
  input:               /home/huanyu/Desktop/test/diamond_XRD.d3
  output:              /home/huanyu/Desktop/test/diamond_XRD.out
  temporary directory: /home/huanyu/Desktop/test/diamond_XRD_tmpfile
  executable script:   /home/huanyu/GitHub/Spica-Vir/HPC-job-submission/PC-Job-Submission/run_job
  executable dir:      module load CRYSTAL/23v1-intel
  mpi + exe command:   mpiexec -np 1 properties < INPUT
-------------------------------------------

Find input data: /home/huanyu/Desktop/test/diamond_XRD.d3
Find input reference: /home/huanyu/Desktop/test/diamond_OPT.f9
Find input reference: /home/huanyu/Desktop/test/diamond_OPT.f9
Find input reference: /home/huanyu/Desktop/test/diamond_OPT.OPTINFO
All files are synchonised.

Job Ready to Go
-------------------------------------------
  Job name       : diamond_XRD
  Command        : mpiexec -np 1 properties < INPUT >> /home/huanyu/Desktop/test/diamond_XRD.out 2>&1
  Temporary dir  : /home/huanyu/Desktop/test/diamond_XRD_tmpfile
  List of files  : total 1548
-rw-r--r-- 1 huanyu users 425060 Aug  1 18:45 fort.20
-rw-r--r-- 1 huanyu users 425060 Aug  1 18:45 fort.9
-rw-r--r-- 1 huanyu users     32 Aug  1 18:45 INPUT
-rw-r--r-- 1 huanyu users   7554 Aug  1 18:45 Job_script_diamond_XRD
-rw-r--r-- 1 huanyu users 718038 Aug  1 18:45 OPTINFO.DAT
  Input script   :
XRDSPEC
3  1.5406  1.0
END
END
-------------------------------------------


         
 *******************************************************************************
 *                                                                             *
 *                               CRYSTAL22                                     *
 *                      public : 1.0.1 - Jul 29th, 2021                        *
 *                       HTTP://WWW.CRYSTAL.UNITO.IT                           *
 *                                                                             *
 *                              MAIN AUTHORS                                   *
 *                                                                             *
 *  R. DOVESI(1,11), V.R. SAUNDERS(2), C. ROETTI(1,11), R. ORLANDO(1,11),      *
 *  C.M. ZICOVICH-WILSON(1,3), F. PASCALE(4), B. CIVALLERI(1,11),              *
 *  K. DOLL(5), N.M. HARRISON(6), I.J. BUSH(7), Ph. D'ARCO(8),                 *
 *  M. LLUNELL(9), M. CAUSA'(10), Y. NOEL(8), L. MASCHIO(1,11), A. ERBA(1,11)  *
 *  M. RE'RAT(14), S. CASASSA(1,11), B.G. SEARLE(2), J.K. DESMARAIS(1)         *
 *                                                                             *
 *        CONTRIBUTIONS TO THE CODE HAVE ALSO BEEN GIVEN BY                    *
 *                                                                             *
 *  M. FERRABONE(1,11), M. DE LA PIERRE(1,11), M. FERRERO(1,11),               *
 *  J. BAIMA(1,11), E. ALBANESE(1,11), M.F. PEINTINGER(12), R. BAST(13),       *
 *  B. KIRTMAN(15), V. LACIVITA(1,11), R. DEMICHELIS(1,16)                     *
 *  G. BRANDEBURG(17), S. SALUSTRO(1,11), G. SANSONE(1,11)                     *
 *  M.T. RUGGIERO(18), L.E. DAGA(1), L. DONA'(1), A. COSSARD(1)                *
 *                                                                             *
 * (1) THEORETICAL CHEMISTRY GROUP - UNIVERSITA' DI TORINO - TORINO (ITALY)    *
 * (2) SCIENTIFIC COMPUTING DEPARTMENT - STFC DARESBURY (UK)                   *
 * (3) UNIVERSIDAD AUTONOMA DEL ESTADO DE MORELOS - CUERNAVACA (MEXICO)        *
 * (4) UNIVERSITE' DE LORRAINE - NANCY (FRANCE)                                *
 * (5) UNIVERSITAET STUTTGART- STUTTGART (GERMANY)                             *
 * (6) IMPERIAL COLLEGE - LONDON (UK)                                          *
 * (7) SCIENTIFIC COMPUTING DEPARTMENT - STFC RAL (UK)                         *
 * (8) UPMC - SORBONNE UNIVERSITES - PARIS (FRANCE)                            *
 * (9) UNIVERSIDAD DE BARCELONA - BARCELONA (SPAIN)                            *
 *(10) UNIVERSITA' DI NAPOLI "FEDERICO II" - NAPOLI (ITALY)                    *
 *(11) NIS - NANOSTRUCTURED INTERFACES AND SURFACES - TORINO (ITALY)           *
 *(12) MPI FUER CHEMISCHE ENERGIEKONVERSION - MUELHEIM AN DER RUHR (GERMANY)   *
 *(13) UNIVERSITY OF TROMSO - TROMSO (NORWAY)                                  *
 *(14) UNIVERSITE' DE PAU ET DES PAYS DE L'ADOUR - PAU (FRANCE)                *
 *(15) UNIVERSITY OF CALIFORNIA SANTA BARBARA - SANTA BARBARA (USA)            *
 *(16) CURTIN UNIVERSITY - PERTH (AUSTRALIA)                                   *
 *(17) UNIVERSITY COLLEGE LONDON - LONDON (UK)                                 *
 *(18) UNIVERSITY OF VERMONT - BURLINGTON (USA)                                *
 *                                                                             *
 *******************************************************************************
 EEEEEEEEEE STARTING  DATE 01 08 2024 TIME 18:45:25.2
 INFORMATION **** SET_MPP **** PCRYSTAL CALCULATION

 *******************************************************************************
 Diamond supercell                                                               
 CRYSTAL - PROPERTIES - TYPE OF CALCULATION :  RESTRICTED CLOSED SHELL
 *******************************************************************************
 KOHN-SHAM HAMILTONIAN

 (EXCHANGE)[CORRELATION] FUNCTIONAL:(BECKE 88)[LEE-YANG-PARR]

 NON-LOCAL WEIGHTING FACTOR (EXCHANGE) =           0.9000
 NON-LOCAL WEIGHTING FACTOR [CORRELATION] =        0.8100

 HYBRID EXCHANGE - PERCENTAGE OF FOCK EXCHANGE    20.0000

 DIRECT LATTICE VECTOR COMPONENTS (ANGSTROM)
         3.58659    0.00000    0.00000
         0.00000    3.58659    0.00000
         0.00000    0.00000    3.58659

 LATTICE PARAMETERS  (ANGSTROM AND DEGREES) - PRIMITIVE CELL
       A          B          C         ALPHA      BETA     GAMMA        VOLUME
    3.58659    3.58659    3.58659     90.0000   90.0000   90.0000      46.13644
 *******************************************************************************
 N. OF ATOMS PER CELL         8 COULOMB OVERLAP TOL          (T1) 10**   -7
 NUMBER OF SHELLS            32 COULOMB PENETRATION TOL      (T2) 10**   -7
 NUMBER OF AO               112 EXCHANGE OVERLAP TOL         (T3) 10**   -7
 N. OF ELECTRONS PER CELL    48 EXCHANGE PSEUDO OVP (F(G))   (T4) 10**   -7
 CORE ELECTRONS PER CELL     16 EXCHANGE PSEUDO OVP (P(G))   (T5) 10**  -14
 N. OF SYMMETRY OPERATORS    24 POLE ORDER IN MONO ZONE                   4
 *******************************************************************************
   ATOM N.AT.  SHELL    X(A)      Y(A)      Z(A)      EXAD       N.ELECT.
 *******************************************************************************
    1    6 C     4     1.793     0.000     0.000   8.000E-01       6.000
    2    6 C     4     0.000     1.793     0.000   8.000E-01       6.000
    3    6 C     4     0.000     0.000     1.793   8.000E-01       6.000
    4    6 C     4     1.793     1.793     1.793   8.000E-01       6.000
    5    6 C     4     0.897     0.897    -0.897   8.000E-01       6.000
    6    6 C     4    -0.897    -0.897    -0.897   8.000E-01       6.000
    7    6 C     4    -0.897     0.897     0.897   8.000E-01       6.000
    8    6 C     4     0.897    -0.897     0.897   8.000E-01       6.000
 *******************************************************************************
 DE(K)                   0.000E+00  ENERGY LEVEL SHIFTING        0.00000
 TOTAL ENERGY -3.0451480006716E+02  CONVERGENCE ON ENER        5.370E-09
 KIN. ENERGY   3.0332403994916E+02  VIR. COEFF.           1.05939755E+00
 N. OF SCF CYCLES                3  FERMI ENERGY              -0.893E-01
 WEIGHT OF F(I) IN F(I+1)      30
 SHRINK. FACT.(MONKH.)    24 24 24  SHRINKING FACTOR(GILAT NET)       48
 NUMBER OF K POINTS IN THE IBZ 455  CELL VOLUME (A.U.)        306.162868
 *******************************************************************************

 GCALCO - MAX INDICES DIRECT LATTICE VECTOR    14    14    14
 NO.OF VECTORS CREATED 6999 STARS  120 RMAX    80.48034 BOHR
 TTTTTTTTTTTTTTTTTTTTTTTTTTTTTT gordsh1     TELAPSE        0.05 TCPU        0.05

 MATRIX SIZE: P(G)  262672, F(G)   47720, P(G) IRR    9393, F(G) IRR    3923
 MAX G-VECTOR INDEX FOR 1- AND 2-ELECTRON INTEGRALS 173


 CAPPA:IS1 24;IS2 24;IS3 24; K PTS MONK NET 455; SYMMOPS:K SPACE  48;G SPACE  24


 *******************************************************************************
 *                                 XRD SPECTRUM                                *
 *******************************************************************************


 GCALCO - MAX INDICES DIRECT LATTICE VECTOR    14    14    14
 NO.OF VECTORS CREATED 6999 STARS  120 RMAX    80.48034 BOHR

 CAPPA:IS1 24;IS2 24;IS3 24; K PTS MONK NET 455; SYMMOPS:K SPACE  48;G SPACE  24


 GCALCO - MAX INDICES DIRECT LATTICE VECTOR    14    14    14
 NO.OF VECTORS CREATED 6999 STARS  120 RMAX    80.48034 BOHR

 H K L INDICES REFER TO THE CONVENTIONAL LATTICE


 ************************************************************************
 *                                                                      *
 *                   X-RAY STATIC STRUCTURE FACTORS                     *
 *                                                                      *
 ************************************************************************

 NUMBER OF FACTORS COMPUTED :   10


    ALPHA+BETA ELECTRONS
  H  K  L   PX     PY     PZ    REAL PART   IMAG. PART    Fhkl   Multipl.

  0  0  0  0.000  0.000  0.000  0.4800E+02  0.0000E+00  0.4800E+02   1
  1  0  0  0.927  0.000  0.000  0.1141E-05 -0.1776E-14  0.1141E-05   6
  2  0  0  1.854  0.000  0.000 -0.1647E-05  0.1414E-14  0.1647E-05   6
  1  1  0  0.927  0.927  0.000 -0.4139E-06 -0.1359E-14  0.4139E-06  12
  2  1  0  1.854  0.927  0.000  0.5999E-07 -0.3109E-14  0.5999E-07  24
  2  2  0  1.854  1.854  0.000  0.1569E+02 -0.3071E-14  0.1569E+02  12
  1  1  1  0.927  0.927  0.927 -0.1331E+02 -0.1331E+02  0.1882E+02   8
  2  1  1  1.854  0.927  0.927 -0.3007E-06 -0.3733E-06  0.4794E-06  24
  2  2  1  1.854  1.854  0.927  0.2375E-06 -0.9085E-07  0.2543E-06  24
  2  2  2  1.854  1.854  1.854 -0.2158E-06  0.9569E+00  0.9569E+00   8


 WAVELENGTH LAMBDA =  1.5406 ANGSTROM
 ISOTROPIC DEBYE-WALLER THERMAL FACTOR B =  1.00 ANGSTROM^2

 LP STANDS FOR LORENTZ-POLARIZATION CORRECTION, PROPORTIONAL TO:

 [1+COS^2(2THETA)]/[SIN^2(THETA)*COS(THETA)]

 DW STANDS FOR THE ISOTROPIC DEBYE-WALLER THERMAL FACTOR, PROPORTIONAL TO:

 EXP[-B(SIN(THETA)/LAMBDA)^2]




   H  K  L  2THETA    DIST     INT    INT-LP  INT-LP-DW
            (DEG)    (ANG)    (a.u.)  (a.u.)   (a.u.)


   1  0  0   24.80    3.587     0.00     0.00     0.00
   2  0  0   50.88    1.793     0.00     0.00     0.00
   1  1  0   35.36    2.536     0.00     0.00     0.00
   2  1  0   57.40    1.604     0.00     0.00     0.00
   2  2  0   74.81    1.268  2952.80   672.80   575.92
   1  1  1   43.68    2.071  2832.53  2099.13  1980.24
   2  1  1   63.48    1.464     0.00     0.00     0.00
   2  2  1   80.23    1.196     0.00     0.00     0.00
   2  2  2   96.15    1.035     7.32     1.25     0.99


 *******************************************************************************
                                  XRD SPECTRUM
 *******************************************************************************

     2THETA    INTENS  INTENS-LP INTENS-LP-DW
     (DEG)     (a.u.)   (a.u.)      (a.u.)


       0.00      0.00      0.00      0.00
       0.04      0.00      0.00      0.00
       0.09      0.00      0.00      0.00
       0.14      0.00      0.00      0.00
       0.18      0.00      0.00      0.00
       0.22      0.00      0.00      0.00
       0.27      0.00      0.00      0.00
       0.31      0.00      0.00      0.00
       0.36      0.00      0.00      0.00
       0.40      0.00      0.00      0.00
       0.45      0.00      0.00      0.00
       0.49      0.00      0.00      0.00
       0.54      0.00      0.00      0.00
       0.58      0.00      0.00      0.00
       0.63      0.00      0.00      0.00
       0.68      0.00      0.00      0.00
       0.72      0.00      0.00      0.00
       0.77      0.00      0.00      0.00
       0.81      0.00      0.00      0.00
       0.86      0.00      0.00      0.00
       0.90      0.00      0.00      0.00
       0.95      0.00      0.00      0.00
       0.99      0.00      0.00      0.00
       1.04      0.00      0.00      0.00
       1.08      0.00      0.00      0.00
       1.13      0.00      0.00      0.00
       1.17      0.00      0.00      0.00
       1.22      0.00      0.00      0.00
       1.26      0.00      0.00      0.00
       1.30      0.00      0.00      0.00
       1.35      0.00      0.00      0.00
       1.39      0.00      0.00      0.00
       1.44      0.00      0.00      0.00
       1.48      0.00      0.00      0.00
       1.53      0.00      0.00      0.00
       1.57      0.00      0.00      0.00
       1.62      0.00      0.00      0.00
       1.66      0.00      0.00      0.00
       1.71      0.00      0.00      0.00
       1.75      0.00      0.00      0.00
       1.80      0.00      0.00      0.00
       1.84      0.00      0.00      0.00
       1.89      0.00      0.00      0.00
       1.93      0.00      0.00      0.00
       1.98      0.00      0.00      0.00
       2.02      0.00      0.00      0.00
       2.07      0.00      0.00      0.00
       2.11      0.00      0.00      0.00
       2.16      0.00      0.00      0.00
       2.20      0.00      0.00      0.00
       2.25      0.00      0.00      0.00
       2.29      0.00      0.00      0.00
       2.34      0.00      0.00      0.00
       2.38      0.00      0.00      0.00
       2.43      0.00      0.00      0.00
       2.47      0.00      0.00      0.00
       2.52      0.00      0.00      0.00
       2.56      0.00      0.00      0.00
       2.61      0.00      0.00      0.00
       2.65      0.00      0.00      0.00
       2.70      0.00      0.00      0.00
       2.74      0.00      0.00      0.00
       2.79      0.00      0.00      0.00
       2.83      0.00      0.00      0.00
       2.88      0.00      0.00      0.00
       2.92      0.00      0.00      0.00
       2.97      0.00      0.00      0.00
       3.01      0.00      0.00      0.00
       3.06      0.00      0.00      0.00
       3.10      0.00      0.00      0.00
       3.15      0.00      0.00      0.00
       3.19      0.00      0.00      0.00
       3.24      0.00      0.00      0.00
       3.28      0.00      0.00      0.00
       3.33      0.00      0.00      0.00
       3.37      0.00      0.00      0.00
       3.42      0.00      0.00      0.00
       3.46      0.00      0.00      0.00
       3.51      0.00      0.00      0.00
       3.55      0.00      0.00      0.00
       3.60      0.00      0.00      0.00
       3.64      0.00      0.00      0.00
       3.69      0.00      0.00      0.00
       3.73      0.00      0.00      0.00
       3.78      0.00      0.00      0.00
       3.82      0.00      0.00      0.00
       3.87      0.00      0.00      0.00
       3.91      0.00      0.00      0.00
       3.96      0.00      0.00      0.00
       4.00      0.00      0.00      0.00
       4.05      0.00      0.00      0.00
       4.09      0.00      0.00      0.00
       4.14      0.00      0.00      0.00
       4.18      0.00      0.00      0.00
       4.23      0.00      0.00      0.00
       4.27      0.00      0.00      0.00
       4.32      0.00      0.00      0.00
       4.36      0.00      0.00      0.00
       4.41      0.00      0.00      0.00
       4.45      0.00      0.00      0.00
       4.50      0.00      0.00      0.00
       4.54      0.00      0.00      0.00
       4.59      0.00      0.00      0.00
       4.63      0.00      0.00      0.00
       4.68      0.00      0.00      0.00
       4.72      0.00      0.00      0.00
       4.77      0.00      0.00      0.00
       4.81      0.00      0.00      0.00
       4.86      0.00      0.00      0.00
       4.90      0.00      0.00      0.00
       4.95      0.00      0.00      0.00
       4.99      0.00      0.00      0.00
       5.04      0.00      0.00      0.00
       5.08      0.00      0.00      0.00
       5.13      0.00      0.00      0.00
       5.17      0.00      0.00      0.00
       5.22      0.00      0.00      0.00
       5.26      0.00      0.00      0.00
       5.31      0.00      0.00      0.00
       5.35      0.00      0.00      0.00
       5.40      0.00      0.00      0.00
       5.44      0.00      0.00      0.00
       5.49      0.00      0.00      0.00
       5.53      0.00      0.00      0.00
       5.58      0.00      0.00      0.00
       5.62      0.00      0.00      0.00
       5.67      0.00      0.00      0.00
       5.71      0.00      0.00      0.00
       5.76      0.00      0.00      0.00
       5.80      0.00      0.00      0.00
       5.85      0.00      0.00      0.00
       5.89      0.00      0.00      0.00
       5.94      0.00      0.00      0.00
       5.98      0.00      0.00      0.00
       6.03      0.00      0.00      0.00
       6.07      0.00      0.00      0.00
       6.12      0.00      0.00      0.00
       6.16      0.00      0.00      0.00
       6.21      0.00      0.00      0.00
       6.25      0.00      0.00      0.00
       6.30      0.00      0.00      0.00
       6.34      0.00      0.00      0.00
       6.39      0.00      0.00      0.00
       6.43      0.00      0.00      0.00
       6.48      0.00      0.00      0.00
       6.52      0.00      0.00      0.00
       6.57      0.00      0.00      0.00
       6.61      0.00      0.00      0.00
       6.66      0.00      0.00      0.00
       6.70      0.00      0.00      0.00
       6.75      0.00      0.00      0.00
       6.79      0.00      0.00      0.00
       6.84      0.00      0.00      0.00
       6.88      0.00      0.00      0.00
       6.93      0.00      0.00      0.00
       6.97      0.00      0.00      0.00
       7.02      0.00      0.00      0.00
       7.06      0.00      0.00      0.00
       7.11      0.00      0.00      0.00
       7.15      0.00      0.00      0.00
       7.20      0.00      0.00      0.00
       7.24      0.00      0.00      0.00
       7.29      0.00      0.00      0.00
       7.33      0.00      0.00      0.00
       7.38      0.00      0.00      0.00
       7.42      0.00      0.00      0.00
       7.47      0.00      0.00      0.00
       7.51      0.00      0.00      0.00
       7.56      0.00      0.00      0.00
       7.60      0.00      0.00      0.00
       7.65      0.00      0.00      0.00
       7.69      0.00      0.00      0.00
       7.74      0.00      0.00      0.00
       7.78      0.00      0.00      0.00
       7.83      0.00      0.00      0.00
       7.87      0.00      0.00      0.00
       7.92      0.00      0.00      0.00
       7.96      0.00      0.00      0.00
       8.01      0.00      0.00      0.00
       8.05      0.00      0.00      0.00
       8.10      0.00      0.00      0.00
       8.14      0.00      0.00      0.00
       8.19      0.00      0.00      0.00
       8.23      0.00      0.00      0.00
       8.28      0.00      0.00      0.00
       8.32      0.00      0.00      0.00
       8.37      0.00      0.00      0.00
       8.41      0.00      0.00      0.00
       8.46      0.00      0.00      0.00
       8.50      0.00      0.00      0.00
       8.55      0.00      0.00      0.00
       8.59      0.00      0.00      0.00
       8.64      0.00      0.00      0.00
       8.68      0.00      0.00      0.00
       8.73      0.00      0.00      0.00
       8.77      0.00      0.00      0.00
       8.82      0.00      0.00      0.00
       8.86      0.00      0.00      0.00
       8.91      0.00      0.00      0.00
       8.95      0.00      0.00      0.00
       9.00      0.00      0.00      0.00
       9.04      0.00      0.00      0.00
       9.09      0.00      0.00      0.00
       9.13      0.00      0.00      0.00
       9.18      0.00      0.00      0.00
       9.22      0.00      0.00      0.00
       9.27      0.00      0.00      0.00
       9.31      0.00      0.00      0.00
       9.36      0.00      0.00      0.00
       9.40      0.00      0.00      0.00
       9.45      0.00      0.00      0.00
       9.49      0.00      0.00      0.00
       9.54      0.00      0.00      0.00
       9.58      0.00      0.00      0.00
       9.63      0.00      0.00      0.00
       9.67      0.00      0.00      0.00
       9.72      0.00      0.00      0.00
       9.76      0.00      0.00      0.00
       9.81      0.00      0.00      0.00
       9.85      0.00      0.00      0.00
       9.90      0.00      0.00      0.00
       9.94      0.00      0.00      0.00
       9.99      0.00      0.00      0.00
      10.03      0.00      0.00      0.00
      10.08      0.00      0.00      0.00
      10.12      0.00      0.00      0.00
      10.17      0.00      0.00      0.00
      10.21      0.00      0.00      0.00
      10.26      0.00      0.00      0.00
      10.30      0.00      0.00      0.00
      10.35      0.00      0.00      0.00
      10.39      0.00      0.00      0.00
      10.44      0.00      0.00      0.00
      10.48      0.00      0.00      0.00
      10.53      0.00      0.00      0.00
      10.57      0.00      0.00      0.00
      10.62      0.00      0.00      0.00
      10.66      0.00      0.00      0.00
      10.71      0.00      0.00      0.00
      10.75      0.00      0.00      0.00
      10.80      0.00      0.00      0.00
      10.84      0.00      0.00      0.00
      10.89      0.00      0.00      0.00
      10.93      0.00      0.00      0.00
      10.98      0.00      0.00      0.00
      11.02      0.00      0.00      0.00
      11.07      0.00      0.00      0.00
      11.11      0.00      0.00      0.00
      11.16      0.00      0.00      0.00
      11.20      0.00      0.00      0.00
      11.25      0.00      0.00      0.00
      11.29      0.00      0.00      0.00
      11.34      0.00      0.00      0.00
      11.38      0.00      0.00      0.00
      11.43      0.00      0.00      0.00
      11.47      0.00      0.00      0.00
      11.52      0.00      0.00      0.00
      11.56      0.00      0.00      0.00
      11.61      0.00      0.00      0.00
      11.65      0.00      0.00      0.00
      11.70      0.00      0.00      0.00
      11.74      0.00      0.00      0.00
      11.79      0.00      0.00      0.00
      11.83      0.00      0.00      0.00
      11.88      0.00      0.00      0.00
      11.92      0.00      0.00      0.00
      11.97      0.00      0.00      0.00
      12.01      0.00      0.00      0.00
      12.06      0.00      0.00      0.00
      12.10      0.00      0.00      0.00
      12.15      0.00      0.00      0.00
      12.19      0.00      0.00      0.00
      12.24      0.00      0.00      0.00
      12.28      0.00      0.00      0.00
      12.33      0.00      0.00      0.00
      12.37      0.00      0.00      0.00
      12.42      0.00      0.00      0.00
      12.46      0.00      0.00      0.00
      12.51      0.00      0.00      0.00
      12.55      0.00      0.00      0.00
      12.60      0.00      0.00      0.00
      12.64      0.00      0.00      0.00
      12.69      0.00      0.00      0.00
      12.73      0.00      0.00      0.00
      12.78      0.00      0.00      0.00
      12.82      0.00      0.00      0.00
      12.87      0.00      0.00      0.00
      12.91      0.00      0.00      0.00
      12.96      0.00      0.00      0.00
      13.00      0.00      0.00      0.00
      13.05      0.00      0.00      0.00
      13.09      0.00      0.00      0.00
      13.14      0.00      0.00      0.00
      13.18      0.00      0.00      0.00
      13.23      0.00      0.00      0.00
      13.27      0.00      0.00      0.00
      13.32      0.00      0.00      0.00
      13.36      0.00      0.00      0.00
      13.41      0.00      0.00      0.00
      13.45      0.00      0.00      0.00
      13.50      0.00      0.00      0.00
      13.54      0.00      0.00      0.00
      13.59      0.00      0.00      0.00
      13.63      0.00      0.00      0.00
      13.68      0.00      0.00      0.00
      13.72      0.00      0.00      0.00
      13.77      0.00      0.00      0.00
      13.81      0.00      0.00      0.00
      13.86      0.00      0.00      0.00
      13.90      0.00      0.00      0.00
      13.95      0.00      0.00      0.00
      13.99      0.00      0.00      0.00
      14.04      0.00      0.00      0.00
      14.08      0.00      0.00      0.00
      14.13      0.00      0.00      0.00
      14.17      0.00      0.00      0.00
      14.22      0.00      0.00      0.00
      14.26      0.00      0.00      0.00
      14.31      0.00      0.00      0.00
      14.35      0.00      0.00      0.00
      14.40      0.00      0.00      0.00
      14.44      0.00      0.00      0.00
      14.49      0.00      0.00      0.00
      14.53      0.00      0.00      0.00
      14.58      0.00      0.00      0.00
      14.62      0.00      0.00      0.00
      14.67      0.00      0.00      0.00
      14.71      0.00      0.00      0.00
      14.76      0.00      0.00      0.00
      14.80      0.00      0.00      0.00
      14.85      0.00      0.00      0.00
      14.89      0.00      0.00      0.00
      14.94      0.00      0.00      0.00
      14.98      0.00      0.00      0.00
      15.03      0.00      0.00      0.00
      15.07      0.00      0.00      0.00
      15.12      0.00      0.00      0.00
      15.16      0.00      0.00      0.00
      15.21      0.00      0.00      0.00
      15.25      0.00      0.00      0.00
      15.30      0.00      0.00      0.00
      15.34      0.00      0.00      0.00
      15.39      0.00      0.00      0.00
      15.43      0.00      0.00      0.00
      15.48      0.00      0.00      0.00
      15.52      0.00      0.00      0.00
      15.57      0.00      0.00      0.00
      15.61      0.00      0.00      0.00
      15.66      0.00      0.00      0.00
      15.70      0.00      0.00      0.00
      15.75      0.00      0.00      0.00
      15.79      0.00      0.00      0.00
      15.84      0.00      0.00      0.00
      15.88      0.00      0.00      0.00
      15.93      0.00      0.00      0.00
      15.97      0.00      0.00      0.00
      16.02      0.00      0.00      0.00
      16.06      0.00      0.00      0.00
      16.11      0.00      0.00      0.00
      16.15      0.00      0.00      0.00
      16.20      0.00      0.00      0.00
      16.24      0.00      0.00      0.00
      16.29      0.00      0.00      0.00
      16.33      0.00      0.00      0.00
      16.38      0.00      0.00      0.00
      16.42      0.00      0.00      0.00
      16.47      0.00      0.00      0.00
      16.51      0.00      0.00      0.00
      16.56      0.00      0.00      0.00
      16.61      0.00      0.00      0.00
      16.65      0.00      0.00      0.00
      16.70      0.00      0.00      0.00
      16.74      0.00      0.00      0.00
      16.79      0.00      0.00      0.00
      16.83      0.00      0.00      0.00
      16.88      0.00      0.00      0.00
      16.92      0.00      0.00      0.00
      16.97      0.00      0.00      0.00
      17.01      0.00      0.00      0.00
      17.06      0.00      0.00      0.00
      17.10      0.00      0.00      0.00
      17.15      0.00      0.00      0.00
      17.19      0.00      0.00      0.00
      17.24      0.00      0.00      0.00
      17.28      0.00      0.00      0.00
      17.33      0.00      0.00      0.00
      17.37      0.00      0.00      0.00
      17.42      0.00      0.00      0.00
      17.46      0.00      0.00      0.00
      17.51      0.00      0.00      0.00
      17.55      0.00      0.00      0.00
      17.60      0.00      0.00      0.00
      17.64      0.00      0.00      0.00
      17.69      0.00      0.00      0.00
      17.73      0.00      0.00      0.00
      17.78      0.00      0.00      0.00
      17.82      0.00      0.00      0.00
      17.87      0.00      0.00      0.00
      17.91      0.00      0.00      0.00
      17.96      0.00      0.00      0.00
      18.00      0.00      0.00      0.00
      18.05      0.00      0.00      0.00
      18.09      0.00      0.00      0.00
      18.14      0.00      0.00      0.00
      18.18      0.00      0.00      0.00
      18.23      0.00      0.00      0.00
      18.27      0.00      0.00      0.00
      18.32      0.00      0.00      0.00
      18.36      0.00      0.00      0.00
      18.41      0.00      0.00      0.00
      18.45      0.00      0.00      0.00
      18.50      0.00      0.00      0.00
      18.54      0.00      0.00      0.00
      18.59      0.00      0.00      0.00
      18.63      0.00      0.00      0.00
      18.68      0.00      0.00      0.00
      18.72      0.00      0.00      0.00
      18.77      0.00      0.00      0.00
      18.81      0.00      0.00      0.00
      18.86      0.00      0.00      0.00
      18.90      0.00      0.00      0.00
      18.95      0.00      0.00      0.00
      18.99      0.00      0.00      0.00
      19.04      0.00      0.00      0.00
      19.08      0.00      0.00      0.00
      19.13      0.00      0.00      0.00
      19.17      0.00      0.00      0.00
      19.22      0.00      0.00      0.00
      19.26      0.00      0.00      0.00
      19.31      0.00      0.00      0.00
      19.35      0.00      0.00      0.00
      19.40      0.00      0.00      0.00
      19.44      0.00      0.00      0.00
      19.49      0.00      0.00      0.00
      19.53      0.00      0.00      0.00
      19.58      0.00      0.00      0.00
      19.62      0.00      0.00      0.00
      19.67      0.00      0.00      0.00
      19.71      0.00      0.00      0.00
      19.76      0.00      0.00      0.00
      19.80      0.00      0.00      0.00
      19.85      0.00      0.00      0.00
      19.89      0.00      0.00      0.00
      19.94      0.00      0.00      0.00
      19.98      0.00      0.00      0.00
      20.03      0.00      0.00      0.00
      20.07      0.00      0.00      0.00
      20.12      0.00      0.00      0.00
      20.16      0.00      0.00      0.00
      20.21      0.00      0.00      0.00
      20.25      0.00      0.00      0.00
      20.30      0.00      0.00      0.00
      20.34      0.00      0.00      0.00
      20.39      0.00      0.00      0.00
      20.43      0.00      0.00      0.00
      20.48      0.00      0.00      0.00
      20.52      0.00      0.00      0.00
      20.57      0.00      0.00      0.00
      20.61      0.00      0.00      0.00
      20.66      0.00      0.00      0.00
      20.70      0.00      0.00      0.00
      20.75      0.00      0.00      0.00
      20.79      0.00      0.00      0.00
      20.84      0.00      0.00      0.00
      20.88      0.00      0.00      0.00
      20.93      0.00      0.00      0.00
      20.97      0.00      0.00      0.00
      21.02      0.00      0.00      0.00
      21.06      0.00      0.00      0.00
      21.11      0.00      0.00      0.00
      21.15      0.00      0.00      0.00
      21.20      0.00      0.00      0.00
      21.24      0.00      0.00      0.00
      21.29      0.00      0.00      0.00
      21.33      0.00      0.00      0.00
      21.38      0.00      0.00      0.00
      21.42      0.00      0.00      0.00
      21.47      0.00      0.00      0.00
      21.51      0.00      0.00      0.00
      21.56      0.00      0.00      0.00
      21.60      0.00      0.00      0.00
      21.65      0.00      0.00      0.00
      21.69      0.00      0.00      0.00
      21.74      0.00      0.00      0.00
      21.78      0.00      0.00      0.00
      21.83      0.00      0.00      0.00
      21.87      0.00      0.00      0.00
      21.92      0.00      0.00      0.00
      21.96      0.00      0.00      0.00
      22.01      0.00      0.00      0.00
      22.05      0.00      0.00      0.00
      22.10      0.00      0.00      0.00
      22.14      0.00      0.00      0.00
      22.19      0.00      0.00      0.00
      22.23      0.00      0.00      0.00
      22.28      0.00      0.00      0.00
      22.32      0.00      0.00      0.00
      22.37      0.00      0.00      0.00
      22.41      0.00      0.00      0.00
      22.46      0.00      0.00      0.00
      22.50      0.00      0.00      0.00
      22.55      0.00      0.00      0.00
      22.59      0.00      0.00      0.00
      22.64      0.00      0.00      0.00
      22.68      0.00      0.00      0.00
      22.73      0.00      0.00      0.00
      22.77      0.00      0.00      0.00
      22.82      0.00      0.00      0.00
      22.86      0.00      0.00      0.00
      22.91      0.00      0.00      0.00
      22.95      0.00      0.00      0.00
      23.00      0.00      0.00      0.00
      23.04      0.00      0.00      0.00
      23.09      0.00      0.00      0.00
      23.13      0.00      0.00      0.00
      23.18      0.00      0.00      0.00
      23.22      0.00      0.00      0.00
      23.27      0.00      0.00      0.00
      23.31      0.00      0.00      0.00
      23.36      0.00      0.00      0.00
      23.40      0.00      0.00      0.00
      23.45      0.00      0.00      0.00
      23.49      0.00      0.00      0.00
      23.54      0.00      0.00      0.00
      23.58      0.00      0.00      0.00
      23.63      0.00      0.00      0.00
      23.67      0.00      0.00      0.00
      23.72      0.00      0.00      0.00
      23.76      0.00      0.00      0.00
      23.81      0.00      0.00      0.00
      23.85      0.00      0.00      0.00
      23.90      0.00      0.00      0.00
      23.94      0.00      0.00      0.00
      23.99      0.00      0.00      0.00
      24.03      0.00      0.00      0.00
      24.08      0.00      0.00      0.00
      24.12      0.00      0.00      0.00
      24.17      0.00      0.00      0.00
      24.21      0.00      0.00      0.00
      24.26      0.00      0.00      0.00
      24.30      0.00      0.00      0.00
      24.35      0.00      0.00      0.00
      24.39      0.00      0.00      0.00
      24.44      0.00      0.00      0.00
      24.48      0.00      0.00      0.00
      24.53      0.00      0.00      0.00
      24.57      0.00      0.00      0.00
      24.62      0.00      0.00      0.00
      24.66      0.00      0.00      0.00
      24.71      0.00      0.00      0.00
      24.75      0.00      0.00      0.00
      24.80      0.00      0.00      0.00
      24.84      0.00      0.00      0.00
      24.89      0.00      0.00      0.00
      24.93      0.00      0.00      0.00
      24.98      0.00      0.00      0.00
      25.02      0.00      0.00      0.00
      25.07      0.00      0.00      0.00
      25.11      0.00      0.00      0.00
      25.16      0.00      0.00      0.00
      25.20      0.00      0.00      0.00
      25.25      0.00      0.00      0.00
      25.29      0.00      0.00      0.00
      25.34      0.00      0.00      0.00
      25.38      0.00      0.00      0.00
      25.43      0.00      0.00      0.00
      25.47      0.00      0.00      0.00
      25.52      0.00      0.00      0.00
      25.56      0.00      0.00      0.00
      25.61      0.00      0.00      0.00
      25.65      0.00      0.00      0.00
      25.70      0.00      0.00      0.00
      25.74      0.00      0.00      0.00
      25.79      0.00      0.00      0.00
      25.83      0.00      0.00      0.00
      25.88      0.00      0.00      0.00
      25.92      0.00      0.00      0.00
      25.97      0.00      0.00      0.00
      26.01      0.00      0.00      0.00
      26.06      0.00      0.00      0.00
      26.10      0.00      0.00      0.00
      26.15      0.00      0.00      0.00
      26.19      0.00      0.00      0.00
      26.24      0.00      0.00      0.00
      26.28      0.00      0.00      0.00
      26.33      0.00      0.00      0.00
      26.37      0.00      0.00      0.00
      26.42      0.00      0.00      0.00
      26.46      0.00      0.00      0.00
      26.51      0.00      0.00      0.00
      26.55      0.00      0.00      0.00
      26.60      0.00      0.00      0.00
      26.64      0.00      0.00      0.00
      26.69      0.00      0.00      0.00
      26.73      0.00      0.00      0.00
      26.78      0.00      0.00      0.00
      26.82      0.00      0.00      0.00
      26.87      0.00      0.00      0.00
      26.91      0.00      0.00      0.00
      26.96      0.00      0.00      0.00
      27.00      0.00      0.00      0.00
      27.05      0.00      0.00      0.00
      27.09      0.00      0.00      0.00
      27.14      0.00      0.00      0.00
      27.18      0.00      0.00      0.00
      27.23      0.00      0.00      0.00
      27.27      0.00      0.00      0.00
      27.32      0.00      0.00      0.00
      27.36      0.00      0.00      0.00
      27.41      0.00      0.00      0.00
      27.45      0.00      0.00      0.00
      27.50      0.00      0.00      0.00
      27.54      0.00      0.00      0.00
      27.59      0.00      0.00      0.00
      27.63      0.00      0.00      0.00
      27.68      0.00      0.00      0.00
      27.72      0.00      0.00      0.00
      27.77      0.00      0.00      0.00
      27.81      0.00      0.00      0.00
      27.86      0.00      0.00      0.00
      27.90      0.00      0.00      0.00
      27.95      0.00      0.00      0.00
      27.99      0.00      0.00      0.00
      28.04      0.00      0.00      0.00
      28.08      0.00      0.00      0.00
      28.13      0.00      0.00      0.00
      28.17      0.00      0.00      0.00
      28.22      0.00      0.00      0.00
      28.26      0.00      0.00      0.00
      28.31      0.00      0.00      0.00
      28.35      0.00      0.00      0.00
      28.40      0.00      0.00      0.00
      28.44      0.00      0.00      0.00
      28.49      0.00      0.00      0.00
      28.53      0.00      0.00      0.00
      28.58      0.00      0.00      0.00
      28.62      0.00      0.00      0.00
      28.67      0.00      0.00      0.00
      28.71      0.00      0.00      0.00
      28.76      0.00      0.00      0.00
      28.80      0.00      0.00      0.00
      28.85      0.00      0.00      0.00
      28.89      0.00      0.00      0.00
      28.94      0.00      0.00      0.00
      28.98      0.00      0.00      0.00
      29.03      0.00      0.00      0.00
      29.07      0.00      0.00      0.00
      29.12      0.00      0.00      0.00
      29.16      0.00      0.00      0.00
      29.21      0.00      0.00      0.00
      29.25      0.00      0.00      0.00
      29.30      0.00      0.00      0.00
      29.34      0.00      0.00      0.00
      29.39      0.00      0.00      0.00
      29.43      0.00      0.00      0.00
      29.48      0.00      0.00      0.00
      29.52      0.00      0.00      0.00
      29.57      0.00      0.00      0.00
      29.61      0.00      0.00      0.00
      29.66      0.00      0.00      0.00
      29.70      0.00      0.00      0.00
      29.75      0.00      0.00      0.00
      29.79      0.00      0.00      0.00
      29.84      0.00      0.00      0.00
      29.88      0.00      0.00      0.00
      29.93      0.00      0.00      0.00
      29.97      0.00      0.00      0.00
      30.02      0.00      0.00      0.00
      30.06      0.00      0.00      0.00
      30.11      0.00      0.00      0.00
      30.15      0.00      0.00      0.00
      30.20      0.00      0.00      0.00
      30.24      0.00      0.00      0.00
      30.29      0.00      0.00      0.00
      30.33      0.00      0.00      0.00
      30.38      0.00      0.00      0.00
      30.42      0.00      0.00      0.00
      30.47      0.00      0.00      0.00
      30.51      0.00      0.00      0.00
      30.56      0.00      0.00      0.00
      30.60      0.00      0.00      0.00
      30.65      0.00      0.00      0.00
      30.69      0.00      0.00      0.00
      30.74      0.00      0.00      0.00
      30.78      0.00      0.00      0.00
      30.83      0.00      0.00      0.00
      30.87      0.00      0.00      0.00
      30.92      0.00      0.00      0.00
      30.96      0.00      0.00      0.00
      31.01      0.00      0.00      0.00
      31.05      0.00      0.00      0.00
      31.10      0.00      0.00      0.00
      31.14      0.00      0.00      0.00
      31.19      0.00      0.00      0.00
      31.23      0.00      0.00      0.00
      31.28      0.00      0.00      0.00
      31.32      0.00      0.00      0.00
      31.37      0.00      0.00      0.00
      31.41      0.00      0.00      0.00
      31.46      0.00      0.00      0.00
      31.50      0.00      0.00      0.00
      31.55      0.00      0.00      0.00
      31.59      0.00      0.00      0.00
      31.64      0.00      0.00      0.00
      31.68      0.00      0.00      0.00
      31.73      0.00      0.00      0.00
      31.77      0.00      0.00      0.00
      31.82      0.00      0.00      0.00
      31.86      0.00      0.00      0.00
      31.91      0.00      0.00      0.00
      31.95      0.00      0.00      0.00
      32.00      0.00      0.00      0.00
      32.04      0.00      0.00      0.00
      32.09      0.00      0.00      0.00
      32.13      0.00      0.00      0.00
      32.18      0.00      0.00      0.00
      32.22      0.00      0.00      0.00
      32.27      0.00      0.00      0.00
      32.31      0.00      0.00      0.00
      32.36      0.00      0.00      0.00
      32.40      0.00      0.00      0.00
      32.45      0.00      0.00      0.00
      32.49      0.00      0.00      0.00
      32.54      0.00      0.00      0.00
      32.58      0.00      0.00      0.00
      32.63      0.00      0.00      0.00
      32.67      0.00      0.00      0.00
      32.72      0.00      0.00      0.00
      32.76      0.00      0.00      0.00
      32.81      0.00      0.00      0.00
      32.85      0.00      0.00      0.00
      32.90      0.00      0.00      0.00
      32.94      0.00      0.00      0.00
      32.99      0.00      0.00      0.00
      33.03      0.00      0.00      0.00
      33.08      0.00      0.00      0.00
      33.12      0.00      0.00      0.00
      33.17      0.00      0.00      0.00
      33.21      0.00      0.00      0.00
      33.26      0.00      0.00      0.00
      33.30      0.00      0.00      0.00
      33.35      0.00      0.00      0.00
      33.39      0.00      0.00      0.00
      33.44      0.00      0.00      0.00
      33.48      0.00      0.00      0.00
      33.53      0.00      0.00      0.00
      33.57      0.00      0.00      0.00
      33.62      0.00      0.00      0.00
      33.66      0.00      0.00      0.00
      33.71      0.00      0.00      0.00
      33.75      0.00      0.00      0.00
      33.80      0.00      0.00      0.00
      33.84      0.00      0.00      0.00
      33.89      0.00      0.00      0.00
      33.93      0.00      0.00      0.00
      33.98      0.00      0.00      0.00
      34.02      0.00      0.00      0.00
      34.07      0.00      0.00      0.00
      34.11      0.00      0.00      0.00
      34.16      0.00      0.00      0.00
      34.20      0.00      0.00      0.00
      34.25      0.00      0.00      0.00
      34.29      0.00      0.00      0.00
      34.34      0.00      0.00      0.00
      34.38      0.00      0.00      0.00
      34.43      0.00      0.00      0.00
      34.47      0.00      0.00      0.00
      34.52      0.00      0.00      0.00
      34.56      0.00      0.00      0.00
      34.61      0.00      0.00      0.00
      34.65      0.00      0.00      0.00
      34.70      0.00      0.00      0.00
      34.74      0.00      0.00      0.00
      34.79      0.00      0.00      0.00
      34.83      0.00      0.00      0.00
      34.88      0.00      0.00      0.00
      34.92      0.00      0.00      0.00
      34.97      0.00      0.00      0.00
      35.01      0.00      0.00      0.00
      35.06      0.00      0.00      0.00
      35.10      0.00      0.00      0.00
      35.15      0.00      0.00      0.00
      35.19      0.00      0.00      0.00
      35.24      0.00      0.00      0.00
      35.28      0.00      0.00      0.00
      35.33      0.00      0.00      0.00
      35.37      0.00      0.00      0.00
      35.42      0.00      0.00      0.00
      35.46      0.00      0.00      0.00
      35.51      0.00      0.00      0.00
      35.55      0.00      0.00      0.00
      35.60      0.00      0.00      0.00
      35.64      0.00      0.00      0.00
      35.69      0.00      0.00      0.00
      35.73      0.00      0.00      0.00
      35.78      0.00      0.00      0.00
      35.82      0.00      0.00      0.00
      35.87      0.00      0.00      0.00
      35.91      0.00      0.00      0.00
      35.96      0.00      0.00      0.00
      36.00      0.00      0.00      0.00
      36.05      0.00      0.00      0.00
      36.09      0.00      0.00      0.00
      36.14      0.00      0.00      0.00
      36.18      0.00      0.00      0.00
      36.23      0.00      0.00      0.00
      36.27      0.00      0.00      0.00
      36.32      0.00      0.00      0.00
      36.36      0.00      0.00      0.00
      36.41      0.00      0.00      0.00
      36.45      0.00      0.00      0.00
      36.50      0.00      0.00      0.00
      36.54      0.00      0.00      0.00
      36.59      0.00      0.00      0.00
      36.63      0.00      0.00      0.00
      36.68      0.00      0.00      0.00
      36.72      0.00      0.00      0.00
      36.77      0.00      0.00      0.00
      36.81      0.00      0.00      0.00
      36.86      0.00      0.00      0.00
      36.90      0.00      0.00      0.00
      36.95      0.00      0.00      0.00
      36.99      0.00      0.00      0.00
      37.04      0.00      0.00      0.00
      37.08      0.00      0.00      0.00
      37.13      0.00      0.00      0.00
      37.17      0.00      0.00      0.00
      37.22      0.00      0.00      0.00
      37.26      0.00      0.00      0.00
      37.31      0.00      0.00      0.00
      37.35      0.00      0.00      0.00
      37.40      0.00      0.00      0.00
      37.44      0.00      0.00      0.00
      37.49      0.00      0.00      0.00
      37.53      0.00      0.00      0.00
      37.58      0.00      0.00      0.00
      37.62      0.00      0.00      0.00
      37.67      0.00      0.00      0.00
      37.71      0.00      0.00      0.00
      37.76      0.00      0.00      0.00
      37.80      0.00      0.00      0.00
      37.85      0.00      0.00      0.00
      37.89      0.00      0.00      0.00
      37.94      0.00      0.00      0.00
      37.98      0.00      0.00      0.00
      38.03      0.00      0.00      0.00
      38.07      0.00      0.00      0.00
      38.12      0.00      0.00      0.00
      38.16      0.00      0.00      0.00
      38.21      0.00      0.00      0.00
      38.25      0.00      0.00      0.00
      38.30      0.00      0.00      0.00
      38.34      0.00      0.00      0.00
      38.39      0.00      0.00      0.00
      38.43      0.00      0.00      0.00
      38.48      0.00      0.00      0.00
      38.52      0.00      0.00      0.00
      38.57      0.00      0.00      0.00
      38.61      0.00      0.00      0.00
      38.66      0.00      0.00      0.00
      38.70      0.00      0.00      0.00
      38.75      0.00      0.00      0.00
      38.79      0.00      0.00      0.00
      38.84      0.00      0.00      0.00
      38.88      0.00      0.00      0.00
      38.93      0.00      0.00      0.00
      38.97      0.00      0.00      0.00
      39.02      0.00      0.00      0.00
      39.06      0.00      0.00      0.00
      39.11      0.00      0.00      0.00
      39.15      0.00      0.00      0.00
      39.20      0.00      0.00      0.00
      39.24      0.00      0.00      0.00
      39.29      0.00      0.00      0.00
      39.33      0.00      0.00      0.00
      39.38      0.00      0.00      0.00
      39.42      0.00      0.00      0.00
      39.47      0.00      0.00      0.00
      39.51      0.00      0.00      0.00
      39.56      0.00      0.00      0.00
      39.60      0.00      0.00      0.00
      39.65      0.00      0.00      0.00
      39.69      0.00      0.00      0.00
      39.74      0.00      0.00      0.00
      39.78      0.00      0.00      0.00
      39.83      0.00      0.00      0.00
      39.87      0.00      0.00      0.00
      39.92      0.00      0.00      0.00
      39.96      0.00      0.00      0.00
      40.01      0.00      0.00      0.00
      40.05      0.00      0.00      0.00
      40.10      0.00      0.00      0.00
      40.14      0.00      0.00      0.00
      40.19      0.00      0.00      0.00
      40.23      0.00      0.00      0.00
      40.28      0.00      0.00      0.00
      40.32      0.00      0.00      0.00
      40.37      0.00      0.00      0.00
      40.41      0.00      0.00      0.00
      40.46      0.00      0.00      0.00
      40.50      0.00      0.00      0.00
      40.55      0.00      0.00      0.00
      40.59      0.00      0.00      0.00
      40.64      0.00      0.00      0.00
      40.68      0.00      0.00      0.00
      40.73      0.00      0.00      0.00
      40.77      0.00      0.00      0.00
      40.82      0.00      0.00      0.00
      40.86      0.00      0.00      0.00
      40.91      0.00      0.00      0.00
      40.95      0.00      0.00      0.00
      41.00      0.00      0.00      0.00
      41.04      0.00      0.00      0.00
      41.09      0.00      0.00      0.00
      41.13      0.00      0.00      0.00
      41.18      0.00      0.00      0.00
      41.22      0.00      0.00      0.00
      41.27      0.00      0.00      0.00
      41.31      0.00      0.00      0.00
      41.36      0.00      0.00      0.00
      41.40      0.00      0.00      0.00
      41.45      0.00      0.00      0.00
      41.49      0.00      0.00      0.00
      41.54      0.00      0.00      0.00
      41.58      0.00      0.00      0.00
      41.63      0.00      0.00      0.00
      41.67      0.00      0.00      0.00
      41.72      0.00      0.00      0.00
      41.76      0.00      0.00      0.00
      41.81      0.00      0.00      0.00
      41.85      0.00      0.00      0.00
      41.90      0.00      0.00      0.00
      41.94      0.00      0.00      0.00
      41.99      0.00      0.00      0.00
      42.03      0.00      0.00      0.00
      42.08      0.00      0.00      0.00
      42.12      0.00      0.00      0.00
      42.17      0.00      0.00      0.00
      42.21      0.00      0.00      0.00
      42.26      0.00      0.00      0.00
      42.30      0.00      0.00      0.00
      42.35      0.00      0.00      0.00
      42.39      0.00      0.00      0.00
      42.44      0.00      0.00      0.00
      42.48      0.00      0.00      0.00
      42.53      0.00      0.00      0.00
      42.57      0.00      0.00      0.00
      42.62      0.00      0.00      0.00
      42.66      0.00      0.00      0.00
      42.71      0.00      0.00      0.00
      42.75      0.00      0.00      0.00
      42.80      0.41      0.30      0.29
      42.84      0.45      0.34      0.32
      42.89      0.51      0.38      0.35
      42.93      0.57      0.42      0.40
      42.98      0.65      0.48      0.45
      43.02      0.74      0.55      0.51
      43.07      0.85      0.63      0.59
      43.11      0.99      0.73      0.69
      43.16      1.17      0.86      0.81
      43.20      1.40      1.03      0.98
      43.25      1.70      1.26      1.19
      43.29      2.12      1.57      1.48
      43.34      2.71      2.01      1.89
      43.38      3.59      2.66      2.51
      43.43      4.98      3.69      3.48
      43.47      7.35      5.45      5.14
      43.52     11.95      8.85      8.35
      43.56     22.66     16.79     15.84
      43.61     57.94     42.93     40.50
      43.65    457.17    338.80    319.61
      43.70   1164.19    862.76    813.90
      43.74     77.45     57.40     54.15
      43.79     27.11     20.09     18.95
      43.83     13.59     10.07      9.50
      43.88      8.13      6.03      5.69
      43.92      5.40      4.00      3.78
      43.97      3.85      2.85      2.69
      44.01      2.88      2.13      2.01
      44.06      2.23      1.66      1.56
      44.10      1.78      1.32      1.25
      44.15      1.46      1.08      1.02
      44.19      1.21      0.90      0.85
      44.24      1.03      0.76      0.72
      44.28      0.88      0.65      0.61
      44.33      0.76      0.56      0.53
      44.37      0.66      0.49      0.46
      44.42      0.59      0.43      0.41
      44.46      0.52      0.39      0.36
      44.51      0.47      0.34      0.33
      44.55      0.42      0.31      0.29
      44.60      0.00      0.00      0.00
      44.64      0.00      0.00      0.00
      44.69      0.00      0.00      0.00
      44.73      0.00      0.00      0.00
      44.78      0.00      0.00      0.00
      44.82      0.00      0.00      0.00
      44.87      0.00      0.00      0.00
      44.91      0.00      0.00      0.00
      44.96      0.00      0.00      0.00
      45.00      0.00      0.00      0.00
      45.05      0.00      0.00      0.00
      45.09      0.00      0.00      0.00
      45.14      0.00      0.00      0.00
      45.18      0.00      0.00      0.00
      45.23      0.00      0.00      0.00
      45.27      0.00      0.00      0.00
      45.32      0.00      0.00      0.00
      45.36      0.00      0.00      0.00
      45.41      0.00      0.00      0.00
      45.45      0.00      0.00      0.00
      45.50      0.00      0.00      0.00
      45.54      0.00      0.00      0.00
      45.59      0.00      0.00      0.00
      45.63      0.00      0.00      0.00
      45.68      0.00      0.00      0.00
      45.72      0.00      0.00      0.00
      45.77      0.00      0.00      0.00
      45.81      0.00      0.00      0.00
      45.86      0.00      0.00      0.00
      45.90      0.00      0.00      0.00
      45.95      0.00      0.00      0.00
      45.99      0.00      0.00      0.00
      46.04      0.00      0.00      0.00
      46.08      0.00      0.00      0.00
      46.13      0.00      0.00      0.00
      46.17      0.00      0.00      0.00
      46.22      0.00      0.00      0.00
      46.26      0.00      0.00      0.00
      46.31      0.00      0.00      0.00
      46.35      0.00      0.00      0.00
      46.40      0.00      0.00      0.00
      46.44      0.00      0.00      0.00
      46.49      0.00      0.00      0.00
      46.53      0.00      0.00      0.00
      46.58      0.00      0.00      0.00
      46.62      0.00      0.00      0.00
      46.67      0.00      0.00      0.00
      46.71      0.00      0.00      0.00
      46.76      0.00      0.00      0.00
      46.80      0.00      0.00      0.00
      46.85      0.00      0.00      0.00
      46.89      0.00      0.00      0.00
      46.94      0.00      0.00      0.00
      46.98      0.00      0.00      0.00
      47.03      0.00      0.00      0.00
      47.07      0.00      0.00      0.00
      47.12      0.00      0.00      0.00
      47.16      0.00      0.00      0.00
      47.21      0.00      0.00      0.00
      47.25      0.00      0.00      0.00
      47.30      0.00      0.00      0.00
      47.34      0.00      0.00      0.00
      47.39      0.00      0.00      0.00
      47.43      0.00      0.00      0.00
      47.48      0.00      0.00      0.00
      47.52      0.00      0.00      0.00
      47.57      0.00      0.00      0.00
      47.61      0.00      0.00      0.00
      47.66      0.00      0.00      0.00
      47.70      0.00      0.00      0.00
      47.75      0.00      0.00      0.00
      47.79      0.00      0.00      0.00
      47.84      0.00      0.00      0.00
      47.88      0.00      0.00      0.00
      47.93      0.00      0.00      0.00
      47.97      0.00      0.00      0.00
      48.02      0.00      0.00      0.00
      48.06      0.00      0.00      0.00
      48.11      0.00      0.00      0.00
      48.15      0.00      0.00      0.00
      48.20      0.00      0.00      0.00
      48.24      0.00      0.00      0.00
      48.29      0.00      0.00      0.00
      48.33      0.00      0.00      0.00
      48.38      0.00      0.00      0.00
      48.42      0.00      0.00      0.00
      48.47      0.00      0.00      0.00
      48.51      0.00      0.00      0.00
      48.56      0.00      0.00      0.00
      48.60      0.00      0.00      0.00
      48.65      0.00      0.00      0.00
      48.69      0.00      0.00      0.00
      48.74      0.00      0.00      0.00
      48.78      0.00      0.00      0.00
      48.83      0.00      0.00      0.00
      48.87      0.00      0.00      0.00
      48.92      0.00      0.00      0.00
      48.96      0.00      0.00      0.00
      49.01      0.00      0.00      0.00
      49.05      0.00      0.00      0.00
      49.10      0.00      0.00      0.00
      49.14      0.00      0.00      0.00
      49.19      0.00      0.00      0.00
      49.23      0.00      0.00      0.00
      49.28      0.00      0.00      0.00
      49.32      0.00      0.00      0.00
      49.37      0.00      0.00      0.00
      49.41      0.00      0.00      0.00
      49.46      0.00      0.00      0.00
      49.50      0.00      0.00      0.00
      49.55      0.00      0.00      0.00
      49.59      0.00      0.00      0.00
      49.64      0.00      0.00      0.00
      49.68      0.00      0.00      0.00
      49.73      0.00      0.00      0.00
      49.77      0.00      0.00      0.00
      49.82      0.00      0.00      0.00
      49.86      0.00      0.00      0.00
      49.91      0.00      0.00      0.00
      49.95      0.00      0.00      0.00
      50.00      0.00      0.00      0.00
      50.04      0.00      0.00      0.00
      50.09      0.00      0.00      0.00
      50.13      0.00      0.00      0.00
      50.18      0.00      0.00      0.00
      50.22      0.00      0.00      0.00
      50.27      0.00      0.00      0.00
      50.31      0.00      0.00      0.00
      50.36      0.00      0.00      0.00
      50.40      0.00      0.00      0.00
      50.45      0.00      0.00      0.00
      50.49      0.00      0.00      0.00
      50.54      0.00      0.00      0.00
      50.58      0.00      0.00      0.00
      50.63      0.00      0.00      0.00
      50.67      0.00      0.00      0.00
      50.72      0.00      0.00      0.00
      50.76      0.00      0.00      0.00
      50.81      0.00      0.00      0.00
      50.85      0.00      0.00      0.00
      50.90      0.00      0.00      0.00
      50.94      0.00      0.00      0.00
      50.99      0.00      0.00      0.00
      51.03      0.00      0.00      0.00
      51.08      0.00      0.00      0.00
      51.12      0.00      0.00      0.00
      51.17      0.00      0.00      0.00
      51.21      0.00      0.00      0.00
      51.26      0.00      0.00      0.00
      51.30      0.00      0.00      0.00
      51.35      0.00      0.00      0.00
      51.39      0.00      0.00      0.00
      51.44      0.00      0.00      0.00
      51.48      0.00      0.00      0.00
      51.53      0.00      0.00      0.00
      51.57      0.00      0.00      0.00
      51.62      0.00      0.00      0.00
      51.66      0.00      0.00      0.00
      51.71      0.00      0.00      0.00
      51.75      0.00      0.00      0.00
      51.80      0.00      0.00      0.00
      51.84      0.00      0.00      0.00
      51.89      0.00      0.00      0.00
      51.93      0.00      0.00      0.00
      51.98      0.00      0.00      0.00
      52.02      0.00      0.00      0.00
      52.07      0.00      0.00      0.00
      52.11      0.00      0.00      0.00
      52.16      0.00      0.00      0.00
      52.20      0.00      0.00      0.00
      52.25      0.00      0.00      0.00
      52.29      0.00      0.00      0.00
      52.34      0.00      0.00      0.00
      52.38      0.00      0.00      0.00
      52.43      0.00      0.00      0.00
      52.47      0.00      0.00      0.00
      52.52      0.00      0.00      0.00
      52.56      0.00      0.00      0.00
      52.61      0.00      0.00      0.00
      52.65      0.00      0.00      0.00
      52.70      0.00      0.00      0.00
      52.74      0.00      0.00      0.00
      52.79      0.00      0.00      0.00
      52.83      0.00      0.00      0.00
      52.88      0.00      0.00      0.00
      52.92      0.00      0.00      0.00
      52.97      0.00      0.00      0.00
      53.01      0.00      0.00      0.00
      53.06      0.00      0.00      0.00
      53.10      0.00      0.00      0.00
      53.15      0.00      0.00      0.00
      53.19      0.00      0.00      0.00
      53.24      0.00      0.00      0.00
      53.28      0.00      0.00      0.00
      53.33      0.00      0.00      0.00
      53.37      0.00      0.00      0.00
      53.42      0.00      0.00      0.00
      53.46      0.00      0.00      0.00
      53.51      0.00      0.00      0.00
      53.55      0.00      0.00      0.00
      53.60      0.00      0.00      0.00
      53.64      0.00      0.00      0.00
      53.69      0.00      0.00      0.00
      53.73      0.00      0.00      0.00
      53.78      0.00      0.00      0.00
      53.82      0.00      0.00      0.00
      53.87      0.00      0.00      0.00
      53.91      0.00      0.00      0.00
      53.96      0.00      0.00      0.00
      54.00      0.00      0.00      0.00
      54.05      0.00      0.00      0.00
      54.09      0.00      0.00      0.00
      54.14      0.00      0.00      0.00
      54.18      0.00      0.00      0.00
      54.23      0.00      0.00      0.00
      54.27      0.00      0.00      0.00
      54.32      0.00      0.00      0.00
      54.36      0.00      0.00      0.00
      54.41      0.00      0.00      0.00
      54.45      0.00      0.00      0.00
      54.50      0.00      0.00      0.00
      54.54      0.00      0.00      0.00
      54.59      0.00      0.00      0.00
      54.63      0.00      0.00      0.00
      54.68      0.00      0.00      0.00
      54.72      0.00      0.00      0.00
      54.77      0.00      0.00      0.00
      54.81      0.00      0.00      0.00
      54.86      0.00      0.00      0.00
      54.90      0.00      0.00      0.00
      54.95      0.00      0.00      0.00
      54.99      0.00      0.00      0.00
      55.04      0.00      0.00      0.00
      55.08      0.00      0.00      0.00
      55.13      0.00      0.00      0.00
      55.17      0.00      0.00      0.00
      55.22      0.00      0.00      0.00
      55.26      0.00      0.00      0.00
      55.31      0.00      0.00      0.00
      55.35      0.00      0.00      0.00
      55.40      0.00      0.00      0.00
      55.44      0.00      0.00      0.00
      55.49      0.00      0.00      0.00
      55.53      0.00      0.00      0.00
      55.58      0.00      0.00      0.00
      55.62      0.00      0.00      0.00
      55.67      0.00      0.00      0.00
      55.71      0.00      0.00      0.00
      55.76      0.00      0.00      0.00
      55.80      0.00      0.00      0.00
      55.85      0.00      0.00      0.00
      55.89      0.00      0.00      0.00
      55.94      0.00      0.00      0.00
      55.98      0.00      0.00      0.00
      56.03      0.00      0.00      0.00
      56.07      0.00      0.00      0.00
      56.12      0.00      0.00      0.00
      56.16      0.00      0.00      0.00
      56.21      0.00      0.00      0.00
      56.25      0.00      0.00      0.00
      56.30      0.00      0.00      0.00
      56.34      0.00      0.00      0.00
      56.39      0.00      0.00      0.00
      56.43      0.00      0.00      0.00
      56.48      0.00      0.00      0.00
      56.52      0.00      0.00      0.00
      56.57      0.00      0.00      0.00
      56.61      0.00      0.00      0.00
      56.66      0.00      0.00      0.00
      56.70      0.00      0.00      0.00
      56.75      0.00      0.00      0.00
      56.79      0.00      0.00      0.00
      56.84      0.00      0.00      0.00
      56.88      0.00      0.00      0.00
      56.93      0.00      0.00      0.00
      56.97      0.00      0.00      0.00
      57.02      0.00      0.00      0.00
      57.06      0.00      0.00      0.00
      57.11      0.00      0.00      0.00
      57.15      0.00      0.00      0.00
      57.20      0.00      0.00      0.00
      57.24      0.00      0.00      0.00
      57.29      0.00      0.00      0.00
      57.33      0.00      0.00      0.00
      57.38      0.00      0.00      0.00
      57.42      0.00      0.00      0.00
      57.47      0.00      0.00      0.00
      57.51      0.00      0.00      0.00
      57.56      0.00      0.00      0.00
      57.60      0.00      0.00      0.00
      57.65      0.00      0.00      0.00
      57.69      0.00      0.00      0.00
      57.74      0.00      0.00      0.00
      57.78      0.00      0.00      0.00
      57.83      0.00      0.00      0.00
      57.87      0.00      0.00      0.00
      57.92      0.00      0.00      0.00
      57.96      0.00      0.00      0.00
      58.01      0.00      0.00      0.00
      58.05      0.00      0.00      0.00
      58.10      0.00      0.00      0.00
      58.14      0.00      0.00      0.00
      58.19      0.00      0.00      0.00
      58.23      0.00      0.00      0.00
      58.28      0.00      0.00      0.00
      58.32      0.00      0.00      0.00
      58.37      0.00      0.00      0.00
      58.41      0.00      0.00      0.00
      58.46      0.00      0.00      0.00
      58.50      0.00      0.00      0.00
      58.55      0.00      0.00      0.00
      58.59      0.00      0.00      0.00
      58.64      0.00      0.00      0.00
      58.68      0.00      0.00      0.00
      58.73      0.00      0.00      0.00
      58.77      0.00      0.00      0.00
      58.82      0.00      0.00      0.00
      58.86      0.00      0.00      0.00
      58.91      0.00      0.00      0.00
      58.95      0.00      0.00      0.00
      59.00      0.00      0.00      0.00
      59.04      0.00      0.00      0.00
      59.09      0.00      0.00      0.00
      59.13      0.00      0.00      0.00
      59.18      0.00      0.00      0.00
      59.22      0.00      0.00      0.00
      59.27      0.00      0.00      0.00
      59.31      0.00      0.00      0.00
      59.36      0.00      0.00      0.00
      59.40      0.00      0.00      0.00
      59.45      0.00      0.00      0.00
      59.49      0.00      0.00      0.00
      59.54      0.00      0.00      0.00
      59.58      0.00      0.00      0.00
      59.63      0.00      0.00      0.00
      59.67      0.00      0.00      0.00
      59.72      0.00      0.00      0.00
      59.76      0.00      0.00      0.00
      59.81      0.00      0.00      0.00
      59.85      0.00      0.00      0.00
      59.90      0.00      0.00      0.00
      59.94      0.00      0.00      0.00
      59.99      0.00      0.00      0.00
      60.03      0.00      0.00      0.00
      60.08      0.00      0.00      0.00
      60.12      0.00      0.00      0.00
      60.17      0.00      0.00      0.00
      60.21      0.00      0.00      0.00
      60.26      0.00      0.00      0.00
      60.30      0.00      0.00      0.00
      60.35      0.00      0.00      0.00
      60.39      0.00      0.00      0.00
      60.44      0.00      0.00      0.00
      60.48      0.00      0.00      0.00
      60.53      0.00      0.00      0.00
      60.57      0.00      0.00      0.00
      60.62      0.00      0.00      0.00
      60.66      0.00      0.00      0.00
      60.71      0.00      0.00      0.00
      60.75      0.00      0.00      0.00
      60.80      0.00      0.00      0.00
      60.84      0.00      0.00      0.00
      60.89      0.00      0.00      0.00
      60.93      0.00      0.00      0.00
      60.98      0.00      0.00      0.00
      61.02      0.00      0.00      0.00
      61.07      0.00      0.00      0.00
      61.11      0.00      0.00      0.00
      61.16      0.00      0.00      0.00
      61.20      0.00      0.00      0.00
      61.25      0.00      0.00      0.00
      61.29      0.00      0.00      0.00
      61.34      0.00      0.00      0.00
      61.38      0.00      0.00      0.00
      61.43      0.00      0.00      0.00
      61.47      0.00      0.00      0.00
      61.52      0.00      0.00      0.00
      61.56      0.00      0.00      0.00
      61.61      0.00      0.00      0.00
      61.65      0.00      0.00      0.00
      61.70      0.00      0.00      0.00
      61.74      0.00      0.00      0.00
      61.79      0.00      0.00      0.00
      61.83      0.00      0.00      0.00
      61.88      0.00      0.00      0.00
      61.92      0.00      0.00      0.00
      61.97      0.00      0.00      0.00
      62.01      0.00      0.00      0.00
      62.06      0.00      0.00      0.00
      62.10      0.00      0.00      0.00
      62.15      0.00      0.00      0.00
      62.19      0.00      0.00      0.00
      62.24      0.00      0.00      0.00
      62.28      0.00      0.00      0.00
      62.33      0.00      0.00      0.00
      62.37      0.00      0.00      0.00
      62.42      0.00      0.00      0.00
      62.46      0.00      0.00      0.00
      62.51      0.00      0.00      0.00
      62.55      0.00      0.00      0.00
      62.60      0.00      0.00      0.00
      62.64      0.00      0.00      0.00
      62.69      0.00      0.00      0.00
      62.73      0.00      0.00      0.00
      62.78      0.00      0.00      0.00
      62.82      0.00      0.00      0.00
      62.87      0.00      0.00      0.00
      62.91      0.00      0.00      0.00
      62.96      0.00      0.00      0.00
      63.00      0.00      0.00      0.00
      63.05      0.00      0.00      0.00
      63.09      0.00      0.00      0.00
      63.14      0.00      0.00      0.00
      63.18      0.00      0.00      0.00
      63.23      0.00      0.00      0.00
      63.27      0.00      0.00      0.00
      63.32      0.00      0.00      0.00
      63.36      0.00      0.00      0.00
      63.41      0.00      0.00      0.00
      63.45      0.00      0.00      0.00
      63.50      0.00      0.00      0.00
      63.54      0.00      0.00      0.00
      63.59      0.00      0.00      0.00
      63.63      0.00      0.00      0.00
      63.68      0.00      0.00      0.00
      63.72      0.00      0.00      0.00
      63.77      0.00      0.00      0.00
      63.81      0.00      0.00      0.00
      63.86      0.00      0.00      0.00
      63.90      0.00      0.00      0.00
      63.95      0.00      0.00      0.00
      63.99      0.00      0.00      0.00
      64.04      0.00      0.00      0.00
      64.08      0.00      0.00      0.00
      64.13      0.00      0.00      0.00
      64.17      0.00      0.00      0.00
      64.22      0.00      0.00      0.00
      64.26      0.00      0.00      0.00
      64.31      0.00      0.00      0.00
      64.35      0.00      0.00      0.00
      64.40      0.00      0.00      0.00
      64.44      0.00      0.00      0.00
      64.49      0.00      0.00      0.00
      64.53      0.00      0.00      0.00
      64.58      0.00      0.00      0.00
      64.62      0.00      0.00      0.00
      64.67      0.00      0.00      0.00
      64.71      0.00      0.00      0.00
      64.76      0.00      0.00      0.00
      64.80      0.00      0.00      0.00
      64.85      0.00      0.00      0.00
      64.89      0.00      0.00      0.00
      64.94      0.00      0.00      0.00
      64.98      0.00      0.00      0.00
      65.03      0.00      0.00      0.00
      65.07      0.00      0.00      0.00
      65.12      0.00      0.00      0.00
      65.16      0.00      0.00      0.00
      65.21      0.00      0.00      0.00
      65.25      0.00      0.00      0.00
      65.30      0.00      0.00      0.00
      65.34      0.00      0.00      0.00
      65.39      0.00      0.00      0.00
      65.43      0.00      0.00      0.00
      65.48      0.00      0.00      0.00
      65.52      0.00      0.00      0.00
      65.57      0.00      0.00      0.00
      65.61      0.00      0.00      0.00
      65.66      0.00      0.00      0.00
      65.70      0.00      0.00      0.00
      65.75      0.00      0.00      0.00
      65.79      0.00      0.00      0.00
      65.84      0.00      0.00      0.00
      65.88      0.00      0.00      0.00
      65.93      0.00      0.00      0.00
      65.97      0.00      0.00      0.00
      66.02      0.00      0.00      0.00
      66.06      0.00      0.00      0.00
      66.11      0.00      0.00      0.00
      66.15      0.00      0.00      0.00
      66.20      0.00      0.00      0.00
      66.24      0.00      0.00      0.00
      66.29      0.00      0.00      0.00
      66.33      0.00      0.00      0.00
      66.38      0.00      0.00      0.00
      66.42      0.00      0.00      0.00
      66.47      0.00      0.00      0.00
      66.51      0.00      0.00      0.00
      66.56      0.00      0.00      0.00
      66.60      0.00      0.00      0.00
      66.65      0.00      0.00      0.00
      66.69      0.00      0.00      0.00
      66.74      0.00      0.00      0.00
      66.78      0.00      0.00      0.00
      66.83      0.00      0.00      0.00
      66.87      0.00      0.00      0.00
      66.92      0.00      0.00      0.00
      66.96      0.00      0.00      0.00
      67.01      0.00      0.00      0.00
      67.05      0.00      0.00      0.00
      67.10      0.00      0.00      0.00
      67.14      0.00      0.00      0.00
      67.19      0.00      0.00      0.00
      67.23      0.00      0.00      0.00
      67.28      0.00      0.00      0.00
      67.32      0.00      0.00      0.00
      67.37      0.00      0.00      0.00
      67.41      0.00      0.00      0.00
      67.46      0.00      0.00      0.00
      67.50      0.00      0.00      0.00
      67.55      0.00      0.00      0.00
      67.59      0.00      0.00      0.00
      67.64      0.00      0.00      0.00
      67.68      0.00      0.00      0.00
      67.73      0.00      0.00      0.00
      67.77      0.00      0.00      0.00
      67.82      0.00      0.00      0.00
      67.86      0.00      0.00      0.00
      67.91      0.00      0.00      0.00
      67.95      0.00      0.00      0.00
      68.00      0.00      0.00      0.00
      68.04      0.00      0.00      0.00
      68.09      0.00      0.00      0.00
      68.13      0.00      0.00      0.00
      68.18      0.00      0.00      0.00
      68.22      0.00      0.00      0.00
      68.27      0.00      0.00      0.00
      68.31      0.00      0.00      0.00
      68.36      0.00      0.00      0.00
      68.40      0.00      0.00      0.00
      68.45      0.00      0.00      0.00
      68.49      0.00      0.00      0.00
      68.54      0.00      0.00      0.00
      68.58      0.00      0.00      0.00
      68.63      0.00      0.00      0.00
      68.67      0.00      0.00      0.00
      68.72      0.00      0.00      0.00
      68.76      0.00      0.00      0.00
      68.81      0.00      0.00      0.00
      68.85      0.00      0.00      0.00
      68.90      0.00      0.00      0.00
      68.94      0.00      0.00      0.00
      68.99      0.00      0.00      0.00
      69.03      0.00      0.00      0.00
      69.08      0.00      0.00      0.00
      69.12      0.00      0.00      0.00
      69.17      0.00      0.00      0.00
      69.21      0.00      0.00      0.00
      69.26      0.00      0.00      0.00
      69.30      0.00      0.00      0.00
      69.35      0.00      0.00      0.00
      69.39      0.00      0.00      0.00
      69.44      0.00      0.00      0.00
      69.48      0.00      0.00      0.00
      69.53      0.00      0.00      0.00
      69.57      0.00      0.00      0.00
      69.62      0.00      0.00      0.00
      69.66      0.00      0.00      0.00
      69.71      0.00      0.00      0.00
      69.75      0.00      0.00      0.00
      69.80      0.00      0.00      0.00
      69.84      0.00      0.00      0.00
      69.89      0.00      0.00      0.00
      69.93      0.00      0.00      0.00
      69.98      0.00      0.00      0.00
      70.02      0.00      0.00      0.00
      70.07      0.00      0.00      0.00
      70.11      0.00      0.00      0.00
      70.16      0.00      0.00      0.00
      70.20      0.00      0.00      0.00
      70.25      0.00      0.00      0.00
      70.29      0.00      0.00      0.00
      70.34      0.00      0.00      0.00
      70.38      0.00      0.00      0.00
      70.43      0.00      0.00      0.00
      70.47      0.00      0.00      0.00
      70.52      0.00      0.00      0.00
      70.56      0.00      0.00      0.00
      70.61      0.00      0.00      0.00
      70.65      0.00      0.00      0.00
      70.70      0.00      0.00      0.00
      70.74      0.00      0.00      0.00
      70.79      0.00      0.00      0.00
      70.83      0.00      0.00      0.00
      70.88      0.00      0.00      0.00
      70.92      0.00      0.00      0.00
      70.97      0.00      0.00      0.00
      71.01      0.00      0.00      0.00
      71.06      0.00      0.00      0.00
      71.10      0.00      0.00      0.00
      71.15      0.00      0.00      0.00
      71.19      0.00      0.00      0.00
      71.24      0.00      0.00      0.00
      71.28      0.00      0.00      0.00
      71.33      0.00      0.00      0.00
      71.37      0.00      0.00      0.00
      71.42      0.00      0.00      0.00
      71.46      0.00      0.00      0.00
      71.51      0.00      0.00      0.00
      71.55      0.00      0.00      0.00
      71.60      0.00      0.00      0.00
      71.64      0.00      0.00      0.00
      71.69      0.00      0.00      0.00
      71.73      0.00      0.00      0.00
      71.78      0.00      0.00      0.00
      71.82      0.00      0.00      0.00
      71.87      0.00      0.00      0.00
      71.91      0.00      0.00      0.00
      71.96      0.00      0.00      0.00
      72.00      0.00      0.00      0.00
      72.05      0.00      0.00      0.00
      72.09      0.00      0.00      0.00
      72.14      0.00      0.00      0.00
      72.18      0.00      0.00      0.00
      72.23      0.00      0.00      0.00
      72.27      0.00      0.00      0.00
      72.32      0.00      0.00      0.00
      72.36      0.00      0.00      0.00
      72.41      0.00      0.00      0.00
      72.45      0.00      0.00      0.00
      72.50      0.00      0.00      0.00
      72.54      0.00      0.00      0.00
      72.59      0.00      0.00      0.00
      72.63      0.00      0.00      0.00
      72.68      0.00      0.00      0.00
      72.72      0.00      0.00      0.00
      72.77      0.00      0.00      0.00
      72.81      0.00      0.00      0.00
      72.86      0.00      0.00      0.00
      72.90      0.00      0.00      0.00
      72.95      0.00      0.00      0.00
      72.99      0.00      0.00      0.00
      73.04      0.00      0.00      0.00
      73.08      0.00      0.00      0.00
      73.13      0.00      0.00      0.00
      73.17      0.00      0.00      0.00
      73.22      0.00      0.00      0.00
      73.26      0.00      0.00      0.00
      73.31      0.00      0.00      0.00
      73.35      0.00      0.00      0.00
      73.40      0.00      0.00      0.00
      73.44      0.00      0.00      0.00
      73.49      0.00      0.00      0.00
      73.53      0.00      0.00      0.00
      73.58      0.00      0.00      0.00
      73.62      0.00      0.00      0.00
      73.67      0.00      0.00      0.00
      73.71      0.00      0.00      0.00
      73.76      0.00      0.00      0.00
      73.80      0.00      0.00      0.00
      73.85      0.00      0.00      0.00
      73.89      0.00      0.00      0.00
      73.94      0.43      0.10      0.08
      73.98      0.48      0.11      0.09
      74.03      0.53      0.12      0.10
      74.07      0.60      0.14      0.12
      74.12      0.68      0.16      0.13
      74.16      0.78      0.18      0.15
      74.21      0.90      0.20      0.17
      74.25      1.05      0.24      0.20
      74.30      1.24      0.28      0.24
      74.34      1.48      0.34      0.29
      74.39      1.81      0.41      0.35
      74.43      2.26      0.51      0.44
      74.48      2.90      0.66      0.56
      74.52      3.85      0.88      0.75
      74.57      5.37      1.22      1.05
      74.61      7.99      1.82      1.56
      74.66     13.14      2.99      2.56
      74.70     25.42      5.79      4.96
      74.75     67.90     15.47     13.24
      74.79    708.61    161.46    138.21
      74.84    824.89    187.95    160.89
      74.88     71.11     16.20     13.87
      74.93     26.16      5.96      5.10
      74.97     13.41      3.06      2.62
      75.02      8.12      1.85      1.58
      75.06      5.44      1.24      1.06
      75.11      3.89      0.89      0.76
      75.15      2.92      0.67      0.57
      75.20      2.28      0.52      0.44
      75.24      1.82      0.42      0.36
      75.29      1.49      0.34      0.29
      75.33      1.24      0.28      0.24
      75.38      1.05      0.24      0.21
      75.42      0.90      0.21      0.18
      75.47      0.78      0.18      0.15
      75.51      0.68      0.16      0.13
      75.56      0.60      0.14      0.12
      75.60      0.54      0.12      0.10
      75.65      0.48      0.11      0.09
      75.69      0.43      0.10      0.08
      75.74      0.00      0.00      0.00
      75.78      0.00      0.00      0.00
      75.83      0.00      0.00      0.00
      75.87      0.00      0.00      0.00
      75.92      0.00      0.00      0.00
      75.96      0.00      0.00      0.00
      76.01      0.00      0.00      0.00
      76.05      0.00      0.00      0.00
      76.10      0.00      0.00      0.00
      76.14      0.00      0.00      0.00
      76.19      0.00      0.00      0.00
      76.23      0.00      0.00      0.00
      76.28      0.00      0.00      0.00
      76.32      0.00      0.00      0.00
      76.37      0.00      0.00      0.00
      76.41      0.00      0.00      0.00
      76.46      0.00      0.00      0.00
      76.50      0.00      0.00      0.00
      76.55      0.00      0.00      0.00
      76.59      0.00      0.00      0.00
      76.64      0.00      0.00      0.00
      76.68      0.00      0.00      0.00
      76.73      0.00      0.00      0.00
      76.77      0.00      0.00      0.00
      76.82      0.00      0.00      0.00
      76.86      0.00      0.00      0.00
      76.91      0.00      0.00      0.00
      76.95      0.00      0.00      0.00
      77.00      0.00      0.00      0.00
      77.04      0.00      0.00      0.00
      77.09      0.00      0.00      0.00
      77.13      0.00      0.00      0.00
      77.18      0.00      0.00      0.00
      77.22      0.00      0.00      0.00
      77.27      0.00      0.00      0.00
      77.31      0.00      0.00      0.00
      77.36      0.00      0.00      0.00
      77.40      0.00      0.00      0.00
      77.45      0.00      0.00      0.00
      77.49      0.00      0.00      0.00
      77.54      0.00      0.00      0.00
      77.58      0.00      0.00      0.00
      77.63      0.00      0.00      0.00
      77.67      0.00      0.00      0.00
      77.72      0.00      0.00      0.00
      77.76      0.00      0.00      0.00
      77.81      0.00      0.00      0.00
      77.85      0.00      0.00      0.00
      77.90      0.00      0.00      0.00
      77.94      0.00      0.00      0.00
      77.99      0.00      0.00      0.00
      78.03      0.00      0.00      0.00
      78.08      0.00      0.00      0.00
      78.12      0.00      0.00      0.00
      78.17      0.00      0.00      0.00
      78.21      0.00      0.00      0.00
      78.26      0.00      0.00      0.00
      78.30      0.00      0.00      0.00
      78.35      0.00      0.00      0.00
      78.39      0.00      0.00      0.00
      78.44      0.00      0.00      0.00
      78.48      0.00      0.00      0.00
      78.53      0.00      0.00      0.00
      78.57      0.00      0.00      0.00
      78.62      0.00      0.00      0.00
      78.66      0.00      0.00      0.00
      78.71      0.00      0.00      0.00
      78.75      0.00      0.00      0.00
      78.80      0.00      0.00      0.00
      78.84      0.00      0.00      0.00
      78.89      0.00      0.00      0.00
      78.93      0.00      0.00      0.00
      78.98      0.00      0.00      0.00
      79.02      0.00      0.00      0.00
      79.07      0.00      0.00      0.00
      79.11      0.00      0.00      0.00
      79.16      0.00      0.00      0.00
      79.20      0.00      0.00      0.00
      79.25      0.00      0.00      0.00
      79.29      0.00      0.00      0.00
      79.34      0.00      0.00      0.00
      79.38      0.00      0.00      0.00
      79.43      0.00      0.00      0.00
      79.47      0.00      0.00      0.00
      79.52      0.00      0.00      0.00
      79.56      0.00      0.00      0.00
      79.61      0.00      0.00      0.00
      79.65      0.00      0.00      0.00
      79.70      0.00      0.00      0.00
      79.74      0.00      0.00      0.00
      79.79      0.00      0.00      0.00
      79.83      0.00      0.00      0.00
      79.88      0.00      0.00      0.00
      79.92      0.00      0.00      0.00
      79.97      0.00      0.00      0.00
      80.01      0.00      0.00      0.00
      80.06      0.00      0.00      0.00
      80.10      0.00      0.00      0.00
      80.15      0.00      0.00      0.00
      80.19      0.00      0.00      0.00
      80.24      0.00      0.00      0.00
      80.28      0.00      0.00      0.00
      80.33      0.00      0.00      0.00
      80.37      0.00      0.00      0.00
      80.42      0.00      0.00      0.00
      80.46      0.00      0.00      0.00
      80.51      0.00      0.00      0.00
      80.55      0.00      0.00      0.00
      80.60      0.00      0.00      0.00
      80.64      0.00      0.00      0.00
      80.69      0.00      0.00      0.00
      80.73      0.00      0.00      0.00
      80.78      0.00      0.00      0.00
      80.82      0.00      0.00      0.00
      80.87      0.00      0.00      0.00
      80.91      0.00      0.00      0.00
      80.96      0.00      0.00      0.00
      81.00      0.00      0.00      0.00
      81.05      0.00      0.00      0.00
      81.09      0.00      0.00      0.00
      81.14      0.00      0.00      0.00
      81.18      0.00      0.00      0.00
      81.23      0.00      0.00      0.00
      81.27      0.00      0.00      0.00
      81.32      0.00      0.00      0.00
      81.36      0.00      0.00      0.00
      81.41      0.00      0.00      0.00
      81.45      0.00      0.00      0.00
      81.50      0.00      0.00      0.00
      81.54      0.00      0.00      0.00
      81.59      0.00      0.00      0.00
      81.63      0.00      0.00      0.00
      81.68      0.00      0.00      0.00
      81.72      0.00      0.00      0.00
      81.77      0.00      0.00      0.00
      81.81      0.00      0.00      0.00
      81.86      0.00      0.00      0.00
      81.90      0.00      0.00      0.00
      81.95      0.00      0.00      0.00
      81.99      0.00      0.00      0.00
      82.04      0.00      0.00      0.00
      82.08      0.00      0.00      0.00
      82.13      0.00      0.00      0.00
      82.17      0.00      0.00      0.00
      82.22      0.00      0.00      0.00
      82.26      0.00      0.00      0.00
      82.31      0.00      0.00      0.00
      82.35      0.00      0.00      0.00
      82.40      0.00      0.00      0.00
      82.44      0.00      0.00      0.00
      82.49      0.00      0.00      0.00
      82.53      0.00      0.00      0.00
      82.58      0.00      0.00      0.00
      82.62      0.00      0.00      0.00
      82.67      0.00      0.00      0.00
      82.71      0.00      0.00      0.00
      82.76      0.00      0.00      0.00
      82.80      0.00      0.00      0.00
      82.85      0.00      0.00      0.00
      82.89      0.00      0.00      0.00
      82.94      0.00      0.00      0.00
      82.98      0.00      0.00      0.00
      83.03      0.00      0.00      0.00
      83.07      0.00      0.00      0.00
      83.12      0.00      0.00      0.00
      83.16      0.00      0.00      0.00
      83.21      0.00      0.00      0.00
      83.25      0.00      0.00      0.00
      83.30      0.00      0.00      0.00
      83.34      0.00      0.00      0.00
      83.39      0.00      0.00      0.00
      83.43      0.00      0.00      0.00
      83.48      0.00      0.00      0.00
      83.52      0.00      0.00      0.00
      83.57      0.00      0.00      0.00
      83.61      0.00      0.00      0.00
      83.66      0.00      0.00      0.00
      83.70      0.00      0.00      0.00
      83.75      0.00      0.00      0.00
      83.79      0.00      0.00      0.00
      83.84      0.00      0.00      0.00
      83.88      0.00      0.00      0.00
      83.93      0.00      0.00      0.00
      83.97      0.00      0.00      0.00
      84.02      0.00      0.00      0.00
      84.06      0.00      0.00      0.00
      84.11      0.00      0.00      0.00
      84.15      0.00      0.00      0.00
      84.20      0.00      0.00      0.00
      84.24      0.00      0.00      0.00
      84.29      0.00      0.00      0.00
      84.33      0.00      0.00      0.00
      84.38      0.00      0.00      0.00
      84.42      0.00      0.00      0.00
      84.47      0.00      0.00      0.00
      84.51      0.00      0.00      0.00
      84.56      0.00      0.00      0.00
      84.60      0.00      0.00      0.00
      84.65      0.00      0.00      0.00
      84.69      0.00      0.00      0.00
      84.74      0.00      0.00      0.00
      84.78      0.00      0.00      0.00
      84.83      0.00      0.00      0.00
      84.87      0.00      0.00      0.00
      84.92      0.00      0.00      0.00
      84.96      0.00      0.00      0.00
      85.01      0.00      0.00      0.00
      85.05      0.00      0.00      0.00
      85.10      0.00      0.00      0.00
      85.14      0.00      0.00      0.00
      85.19      0.00      0.00      0.00
      85.23      0.00      0.00      0.00
      85.28      0.00      0.00      0.00
      85.32      0.00      0.00      0.00
      85.37      0.00      0.00      0.00
      85.41      0.00      0.00      0.00
      85.46      0.00      0.00      0.00
      85.50      0.00      0.00      0.00
      85.55      0.00      0.00      0.00
      85.59      0.00      0.00      0.00
      85.64      0.00      0.00      0.00
      85.68      0.00      0.00      0.00
      85.73      0.00      0.00      0.00
      85.77      0.00      0.00      0.00
      85.82      0.00      0.00      0.00
      85.86      0.00      0.00      0.00
      85.91      0.00      0.00      0.00
      85.95      0.00      0.00      0.00
      86.00      0.00      0.00      0.00
      86.04      0.00      0.00      0.00
      86.09      0.00      0.00      0.00
      86.13      0.00      0.00      0.00
      86.18      0.00      0.00      0.00
      86.22      0.00      0.00      0.00
      86.27      0.00      0.00      0.00
      86.31      0.00      0.00      0.00
      86.36      0.00      0.00      0.00
      86.40      0.00      0.00      0.00
      86.45      0.00      0.00      0.00
      86.49      0.00      0.00      0.00
      86.54      0.00      0.00      0.00
      86.58      0.00      0.00      0.00
      86.63      0.00      0.00      0.00
      86.67      0.00      0.00      0.00
      86.72      0.00      0.00      0.00
      86.76      0.00      0.00      0.00
      86.81      0.00      0.00      0.00
      86.85      0.00      0.00      0.00
      86.90      0.00      0.00      0.00
      86.94      0.00      0.00      0.00
      86.99      0.00      0.00      0.00
      87.03      0.00      0.00      0.00
      87.08      0.00      0.00      0.00
      87.12      0.00      0.00      0.00
      87.17      0.00      0.00      0.00
      87.21      0.00      0.00      0.00
      87.26      0.00      0.00      0.00
      87.30      0.00      0.00      0.00
      87.35      0.00      0.00      0.00
      87.39      0.00      0.00      0.00
      87.44      0.00      0.00      0.00
      87.48      0.00      0.00      0.00
      87.53      0.00      0.00      0.00
      87.57      0.00      0.00      0.00
      87.62      0.00      0.00      0.00
      87.66      0.00      0.00      0.00
      87.71      0.00      0.00      0.00
      87.75      0.00      0.00      0.00
      87.80      0.00      0.00      0.00
      87.84      0.00      0.00      0.00
      87.89      0.00      0.00      0.00
      87.93      0.00      0.00      0.00
      87.98      0.00      0.00      0.00
      88.02      0.00      0.00      0.00
      88.07      0.00      0.00      0.00
      88.11      0.00      0.00      0.00
      88.16      0.00      0.00      0.00
      88.20      0.00      0.00      0.00
      88.25      0.00      0.00      0.00
      88.29      0.00      0.00      0.00
      88.34      0.00      0.00      0.00
      88.38      0.00      0.00      0.00
      88.43      0.00      0.00      0.00
      88.47      0.00      0.00      0.00
      88.52      0.00      0.00      0.00
      88.56      0.00      0.00      0.00
      88.61      0.00      0.00      0.00
      88.65      0.00      0.00      0.00
      88.70      0.00      0.00      0.00
      88.74      0.00      0.00      0.00
      88.79      0.00      0.00      0.00
      88.83      0.00      0.00      0.00
      88.88      0.00      0.00      0.00
      88.92      0.00      0.00      0.00
      88.97      0.00      0.00      0.00
      89.01      0.00      0.00      0.00
      89.06      0.00      0.00      0.00
      89.10      0.00      0.00      0.00
      89.15      0.00      0.00      0.00
      89.19      0.00      0.00      0.00
      89.24      0.00      0.00      0.00
      89.28      0.00      0.00      0.00
      89.33      0.00      0.00      0.00
      89.37      0.00      0.00      0.00
      89.42      0.00      0.00      0.00
      89.46      0.00      0.00      0.00
      89.51      0.00      0.00      0.00
      89.55      0.00      0.00      0.00
      89.60      0.00      0.00      0.00
      89.64      0.00      0.00      0.00
      89.69      0.00      0.00      0.00
      89.73      0.00      0.00      0.00
      89.78      0.00      0.00      0.00
      89.82      0.00      0.00      0.00
      89.87      0.00      0.00      0.00
      89.91      0.00      0.00      0.00
      89.96      0.00      0.00      0.00
 TTTTTTTTTTTTTTTTTTTTTTTTTTTTTT XRDSPEC     TELAPSE        0.09 TCPU        0.09
 ENDPROP   
 TTTTTTTTTTTTTTTTTTTTTTTTTTTTTT END         TELAPSE        0.09 TCPU        0.09
 EEEEEEEEEE TERMINATION  DATE 01 08 2024 TIME 18:45:25.2
  fort.9               diamond_XRD.f9                                        425060   Aug 1 18:45
  OPTINFO.DAT          diamond_XRD.OPTINFO                                   718038   Aug 1 18:45
  fort.13              diamond_XRD.f13                                       2101384  Aug 1 18:45
--------------------------------------------

Temporary Directory Disk Info
--------------------------------------------
  Temporary directory      : /home/huanyu/Desktop/test/diamond_XRD_tmpfile

  Disk usage (df -h)
Filesystem      Size  Used Avail Use% Mounted on
/dev/sda1       3.7T  702G  3.0T  19% /home

  Usage by folders (du -m)
5	/home/huanyu/Desktop/test/diamond_XRD_tmpfile

  Detailed file list (ls -l .)
    see /home/huanyu/Desktop/test/diamond_XRD.log file
--------------------------------------------

