date Tue 1 Feb 2022 14:09:52 GMT
hostname MacBook-Pro-3.local
system Darwin MacBook-Pro-3.local 20.6.0 Darwin Kernel Version 20.6.0: Wed Nov 10 22:23:05 PST 2021; root:xnu-7195.141.14~1/RELEASE_ARM64_T8101 arm64
user brunocamino
output data in /Users/brunocamino/Desktop/Imperial/crystal-code-tools/CRYSTALpy/examples/data/density/adsorbate.out
crystal executable in /Users/brunocamino/crystal
input data in /Users/brunocamino/Desktop/Imperial/crystal-code-tools/CRYSTALpy/examples/data/density/adsorbate.d12
temporary directory /Users/brunocamino/crystal/tmp
external geometry input from /Users/brunocamino/Desktop/Imperial/crystal-code-tools/CRYSTALpy/examples/data/density/adsorbate.gui
external geometry input saved in /Users/brunocamino/Desktop/Imperial/crystal-code-tools/CRYSTALpy/examples/data/density/adsorbate_inp.gui
Adsorption tests
EXTERNAL
EXTPRT
BASISSET
STO-3G
GHOSTS
4
1 2 3 4
DFT
B3LYP
XXLGRID
ENDDFT
TOLINTEG
7 7 7 7 14
SHRINK
12 24
MAXCYCLE
200
ENDSCF

         
 *******************************************************************************
 *                                                                             *
 *                               CRYSTAL17                                     *
 *                      public : 1.0.2 - March 1st, 2018                       *
 *                       HTTP://WWW.CRYSTAL.UNITO.IT                           *
 *                                                                             *
 *                              MAIN AUTHORS                                   *
 *                                                                             *
 *  R. DOVESI(1,11), V.R. SAUNDERS(2), C. ROETTI(1,11), R. ORLANDO(1,11),      *
 *  C.M. ZICOVICH-WILSON(1,3), F. PASCALE(4), B. CIVALLERI(1,11),              *
 *  K. DOLL(5), N.M. HARRISON(2,6), I.J. BUSH(7), Ph. D'ARCO(8),               *
 *  M. LLUNELL(9), M. CAUSA'(10), Y. NOEL(8), L. MASCHIO(1,11), A. ERBA(1,11)  *
 *  M. RE'RAT(14), S. CASASSA(1,11)                                            *
 *                                                                             *
 *        CONTRIBUTIONS TO THE CODE HAVE ALSO BEEN GIVEN BY                    *
 *                                                                             *
 *  M. FERRABONE(1,11), M. DE LA PIERRE(1,11), M. FERRERO(1,11),               *
 *  J. BAIMA(1,11), E. ALBANESE(1,11), M.F. PEINTINGER(12), R. BAST(13),       *
 *  B. KIRTMAN(15), V. LACIVITA(1,11), R. DEMICHELIS(1,16)                     *
 *  G. BRANDEBURG(17), S. SALUSTRO(1,11), G. SANSONE(1,11)                     *
 *  M.T. RUGGIERO(18)                                                          *
 *                                                                             *
 * (1) THEORETICAL CHEMISTRY GROUP - UNIVERSITA' DI TORINO - TORINO (ITALY)    *
 * (2) COMPUTATIONAL SCIENCE & ENGINEERING DEPARTMENT - STFC DARESBURY (UK)    *
 * (3) UNIVERSIDAD AUTONOMA DEL ESTADO DE MORELOS - CUERNAVACA (MEXICO)        *
 * (4) UNIVERSITE' DE LORRAINE - NANCY (FRANCE)                                *
 * (5) UNIVERSITAET STUTTGART- STUTTGART (GERMANY)                             *
 * (6) IMPERIAL COLLEGE - LONDON (UK)                                          *
 * (7) OXFORD E-RESEARCH CENTRE - OXFORD (UK)                                  *
 * (8) UPMC - SORBONNE UNIVERSITES - PARIS (FRANCE)                            *
 * (9) UNIVERSIDAD DE BARCELONA - BARCELONA (SPAIN)                            *
 *(10) UNIVERSITA' DI NAPOLI "FEDERICO II" - NAPOLI (ITALY)                    *
 *(11) NIS - NANOSTRUCTURED INTERFACES AND SURFACES - TORINO (ITALY)           *
 *(12) MPI FUER CHEMISCHE ENERGIEKONVERSION - MUELHEIM AN DER RUHR (GERMANY)   *
 *(13) UNIVERSITY OF TROMSO - TROMSO (NORWAY)                                  *
 *(14) UNIVERSITE' DE PAU ET DES PAYS DE L'ADOUR - PAU (FRANCE)                *
 *(15) UNIVERSITY OF CALIFORNIA SANTA BARBARA - SANTA BARBARA (USA)            *
 *(16) CURTIN UNIVERSITY - PERTH (AUSTRALIA)                                   *
 *(17) UNIVERSITY COLLEGE LONDON - LONDON (UK)                                 *
 *(18) CAMBRIDGE UNIVERSITY - CAMBRIDGE (UK)                                   *
 *                                                                             *
 *******************************************************************************
 EEEEEEEEEE STARTING  DATE 01 02 2022 TIME 14:09:52.9
 Adsorption tests                                                                

 GEOMETRY INPUT FROM EXTERNAL FILE (FORTRAN UNIT 34)
 2D - SLAB    

 *******************************************************************************
 LATTICE PARAMETERS  (ANGSTROMS AND DEGREES) - PRIMITIVE CELL
       A          B          C        ALPHA      BETA     GAMMA        VOLUME
    3.00979    3.00979  500.00000    90.00000  90.00000  90.00000      9.058828
 INFORMATION **** CHKGRP **** SPGR WITH NO INVERSION

 NUMBER OF IRREDUCIBLE ATOMS IN THE CELL:    3

 CARTESIAN COORDINATES (ANGSTROM) - IRREDUCIBLE ATOMS AND SYMMETRY RELATED

 AT.IRR.  AT  AT.N.          X                   Y                   Z
     1     1    12    0.000000000000E+00  1.504890000000E+00  1.064120000000E+00
     1     2    12    1.504890000000E+00  0.000000000000E+00 -1.064120000000E+00
     3     3     8    0.000000000000E+00  1.504890000000E+00 -1.064120000000E+00
     3     4     8    1.504890000000E+00  0.000000000000E+00  1.064120000000E+00
     5     5     8    1.504890000000E+00  0.000000000000E+00 -3.064120000000E+00
     5     6     8    0.000000000000E+00  1.504890000000E+00  3.064120000000E+00

 SYMMETRY CHANGED DURING OLD RUN :  INFORMATION ON SPACE GROUP LOST 
 NUMBER OF SYMMETRY OPERATORS         :    8
 *******************************************************************************
 LATTICE PARAMETERS (ANGSTROMS AND DEGREES) - BOHR = 0.5291772083 ANGSTROM
 PRIMITIVE CELL
         A              B              C           ALPHA      BETA       GAMMA 
     3.00978870     3.00978870   500.00000000    90.000000  90.000000  90.000000
 *******************************************************************************
 ATOMS IN THE ASYMMETRIC UNIT    3 - ATOMS IN THE UNIT CELL:    6
     ATOM                 X/A                 Y/B             Z(ANGSTROM)
 *******************************************************************************
      1 T  12 MG    3.061608147636E-17  4.999985546474E-01  1.064120000000E+00
      2 F  12 MG    4.999985546474E-01  0.000000000000E+00 -1.064120000000E+00
      3 T   8 O     3.061608147636E-17  4.999985546474E-01 -1.064120000000E+00
      4 F   8 O     4.999985546474E-01  0.000000000000E+00  1.064120000000E+00
      5 T   8 O     4.999985546474E-01  0.000000000000E+00 -3.064120000000E+00
      6 F   8 O     3.061608147636E-17  4.999985546474E-01  3.064120000000E+00

 T = ATOM BELONGING TO THE ASYMMETRIC UNIT
 *******************************************************************************
 * GEOMETRY EDITING - INPUT COORDINATES ARE GIVEN IN ANGSTROM         
 *******************************************************************************

 GEOMETRY NOW FULLY CONSISTENT WITH THE GROUP

 GCALCO - MAX INDICES DIRECT LATTICE VECTOR    83    83     0
 NO.OF VECTORS CREATED 6999 STARS  686 RMAX   268.28716 BOHR

 GEOMETRY FOR WAVE FUNCTION - DIMENSIONALITY OF THE SYSTEM    2
 (NON PERIODIC DIRECTION: LATTICE PARAMETER FORMALLY SET TO 500)
 *******************************************************************************
 LATTICE PARAMETERS (ANGSTROMS AND DEGREES) - BOHR = 0.5291772083 ANGSTROM
 PRIMITIVE CELL
         A              B              C           ALPHA      BETA       GAMMA 
     3.00978870     3.00978870   500.00000000    90.000000  90.000000  90.000000
 *******************************************************************************
 ATOMS IN THE ASYMMETRIC UNIT    3 - ATOMS IN THE UNIT CELL:    6
     ATOM                 X/A                 Y/B             Z(ANGSTROM)
 *******************************************************************************
      1 T  12 MG    0.000000000000E+00 -5.000000000000E-01  1.064120000000E+00
      2 F  12 MG   -5.000000000000E-01  3.061616997868E-17 -1.064120000000E+00
      3 T   8 O     0.000000000000E+00 -5.000000000000E-01 -1.064120000000E+00
      4 F   8 O    -5.000000000000E-01  3.061616997868E-17  1.064120000000E+00
      5 T   8 O    -5.000000000000E-01  0.000000000000E+00 -3.064120000000E+00
      6 F   8 O    -3.061616997868E-17 -5.000000000000E-01  3.064120000000E+00

 T = ATOM BELONGING TO THE ASYMMETRIC UNIT

 ****    8 SYMMOPS - TRANSLATORS IN FRACTIONAL UNITS
 **** MATRICES AND TRANSLATORS IN THE CRYSTALLOGRAPHIC REFERENCE FRAME
   V INV                    ROTATION MATRICES                   TRANSLATORS
   1   1  1.00  0.00  0.00  0.00  1.00  0.00  0.00  0.00  1.00  0.00  0.00  0.00
   2   2 -1.00  0.00  0.00  0.00 -1.00  0.00  0.00  0.00  1.00  0.00  0.00  0.00
   3   3 -0.00 -1.00  0.00 -1.00  0.00  0.00  0.00  0.00 -1.00  0.00  0.00  0.00
   4   4  0.00  1.00  0.00  1.00 -0.00  0.00  0.00  0.00 -1.00  0.00  0.00  0.00
   5   6 -0.00  1.00  0.00 -1.00  0.00  0.00  0.00  0.00 -1.00  0.00  0.00  0.00
   6   5  0.00 -1.00  0.00  1.00 -0.00  0.00  0.00  0.00 -1.00  0.00  0.00  0.00
   7   7 -1.00  0.00  0.00  0.00  1.00  0.00  0.00  0.00  1.00  0.00  0.00  0.00
   8   8  1.00 -0.00  0.00  0.00 -1.00  0.00  0.00  0.00  1.00  0.00  0.00  0.00

 DIRECT LATTICE VECTORS CARTESIAN COMPONENTS (ANGSTROM)
          X                    Y                    Z
   0.300978870041E+01   0.000000000000E+00   0.000000000000E+00
  -0.184296404903E-15   0.300978870041E+01   0.000000000000E+00
   0.000000000000E+00   0.000000000000E+00   0.500000000000E+03


 CARTESIAN COORDINATES - PRIMITIVE CELL
 *******************************************************************************
 *      ATOM          X(ANGSTROM)         Y(ANGSTROM)         Z(ANGSTROM)
 *******************************************************************************
    1    12 MG   -9.214820245174E-17  1.504894350206E+00  1.064120000000E+00
    2    12 MG    1.504894350206E+00  9.214820245174E-17 -1.064120000000E+00
    3     8 O    -9.214820245174E-17  1.504894350206E+00 -1.064120000000E+00
    4     8 O     1.504894350206E+00  9.214820245174E-17  1.064120000000E+00
    5     8 O     1.504894350206E+00  0.000000000000E+00 -3.064120000000E+00
    6     8 O    -1.842964049035E-16  1.504894350206E+00  3.064120000000E+00

 *******************************************************************************
 STARTING BASIS SET HANDLING 
 *******************************************************************************

 Loading internal basis set: STO-3G              

 Please cite in your publication:
 H - Ne: W.J. Hehre, R.F. Stewart and J.A. Pople, J. Chem. Phys. 2657 (1969).   
                                                                                
                                                                                
                    
 Na - Ar: W.J. Hehre, R. Ditchfield, R.F. Stewart, J.A. Pople, J. Chem. Phys.  2
 769 (1970).                                                                    
                                                                                
                    
 K,Ca: W.J. Pietro, B.A. Levy, W.J. Hehre and R.F. Stewart, Inorg. Chem., 1980, 
 19 (8), pp 2225-2229                                                           
                                                                                
                    
 Ga-Kr: J. Am. Chem. Soc. 19, 2225 (1980).                                      
                                                                                
                                                                                
                    
 Sc-Zn, Y-Cd: W.J. Pietro and W.J. Hehre, J. Comp. Chem. 4, 241 (1983).         
                                                                                
                                                                                
                    

 *******************************************************************************
 LOCAL ATOMIC FUNCTIONS BASIS SET
 *******************************************************************************
   ATOM   X(AU)   Y(AU)   Z(AU)  N. TYPE  EXPONENT  S COEF   P COEF   D/F/G COEF
 *******************************************************************************
   1 MG  -0.000   2.844   2.011
                                  1 S  
                                         2.992E+02 1.543E-01 0.000E+00 0.000E+00
                                         5.451E+01 5.353E-01 0.000E+00 0.000E+00
                                         1.475E+01 4.446E-01 0.000E+00 0.000E+00
                                  2 S  
                                         1.512E+01-9.997E-02 0.000E+00 0.000E+00
                                         3.514E+00 3.995E-01 0.000E+00 0.000E+00
                                         1.143E+00 7.001E-01 0.000E+00 0.000E+00
                                  3 S  
                                         1.395E+00-2.196E-01 0.000E+00 0.000E+00
                                         3.893E-01 2.256E-01 0.000E+00 0.000E+00
                                         1.524E-01 9.004E-01 0.000E+00 0.000E+00
                           4-     6 P  
                                         1.512E+01 0.000E+00 1.559E-01 0.000E+00
                                         3.514E+00 0.000E+00 6.077E-01 0.000E+00
                                         1.143E+00 0.000E+00 3.920E-01 0.000E+00
                           7-     9 P  
                                         1.395E+00 0.000E+00 1.059E-02 0.000E+00
                                         3.893E-01 0.000E+00 5.952E-01 0.000E+00
                                         1.524E-01 0.000E+00 4.620E-01 0.000E+00
   2 MG   2.844   0.000  -2.011
   3 O   -0.000   2.844  -2.011
                                 19 S  
                                         1.307E+02 1.543E-01 0.000E+00 0.000E+00
                                         2.381E+01 5.353E-01 0.000E+00 0.000E+00
                                         6.444E+00 4.446E-01 0.000E+00 0.000E+00
                                 20 S  
                                         5.033E+00-9.997E-02 0.000E+00 0.000E+00
                                         1.170E+00 3.995E-01 0.000E+00 0.000E+00
                                         3.804E-01 7.001E-01 0.000E+00 0.000E+00
                          21-    23 P  
                                         5.033E+00 0.000E+00 1.559E-01 0.000E+00
                                         1.170E+00 0.000E+00 6.077E-01 0.000E+00
                                         3.804E-01 0.000E+00 3.920E-01 0.000E+00
   4 O    2.844   0.000   2.011
   5 O    2.844   0.000  -5.790
   6 O   -0.000   2.844   5.790

 *******************************************************************************
 FINISHED BASIS SET HANDLING 
 *******************************************************************************

 INFORMATION **** SET_MPP **** PCRYSTAL CALCULATION
 INFORMATION **** READM2 **** NEW DEFAULT: FOCK/KS MATRIX MIXING SET TO 30 %
 INFORMATION **** READM2 **** NEW DEFAULT: FULL DIRECT SCF MODE
 INFORMATION **** READM2 **** NEW DEFAULT: COULOMB BIPOLAR BUFFER SET TO 32 Mb
 INFORMATION **** READM2 **** NEW DEFAULT: EXCHANGE BIPOLAR BUFFER SET TO 32 Mb

 *******************************************************************************
 * ATOMS TRANSFORMED INTO GHOSTS :   4
   1( 12)   2( 12)   3(  8)   4(  8)
 SYMMETRY MAY BE BROKEN

 *******************************************************************************
 NEW DEFAULT: DFT INTEGRATION GRID INCREASED TO XLGRID
 NEW DEFAULT: DIIS ACCELERATOR ACTIVE
 USE KEYWORD NODIIS TO TURN IT OFF
 *******************************************************************************

 INFORMATION **** TOLINTEG **** COULOMB AND EXCHANGE SERIES TOLERANCES MODIFIED
 INFORMATION **** MAXCYCLE **** MAX NUMBER OF SCF CYCLES SET TO         200

 GHOST ATOMS - REMOVAL OF NUCLEAR CHARGE AND ELECTRONS
 TOTAL NUCLEAR CHARGE        1.600000E+01
 TOTAL ELECTRONIC CHARGE     1.600000E+01
 *******************************************************************************
 N. OF ATOMS PER CELL         6  COULOMB OVERLAP TOL         (T1) 10**   -7
 NUMBER OF SHELLS            22  COULOMB PENETRATION TOL     (T2) 10**   -7
 NUMBER OF AO                38  EXCHANGE OVERLAP TOL        (T3) 10**   -7
 N. OF ELECTRONS PER CELL    16  EXCHANGE PSEUDO OVP (F(G))  (T4) 10**   -7
 CORE ELECTRONS PER CELL      4  EXCHANGE PSEUDO OVP (P(G))  (T5) 10**  -14
 N. OF SYMMETRY OPERATORS     8  POLE ORDER IN MONO ZONE                  4
 *******************************************************************************
 TYPE OF CALCULATION :  RESTRICTED CLOSED SHELL
 KOHN-SHAM HAMILTONIAN

 (EXCHANGE)[CORRELATION] FUNCTIONAL:(BECKE 88)[LEE-YANG-PARR]

 NON-LOCAL WEIGHTING FACTOR (EXCHANGE) =           0.9000
 NON-LOCAL WEIGHTING FACTOR [CORRELATION] =        0.8100

 HYBRID EXCHANGE - PERCENTAGE OF FOCK EXCHANGE    20.0000

 CAPPA:IS1 12;IS2 12;IS3  1; K PTS MONK NET  28; SYMMOPS:K SPACE  16;G SPACE   8

 *******************************************************************************
 MAX NUMBER OF SCF CYCLES     200  CONVERGENCE ON DELTAP        10**-16
 WEIGHT OF F(I) IN F(I+1)      30% CONVERGENCE ON ENERGY        10**- 6
 SHRINK. FACT.(MONKH.)   12 12  1  NUMBER OF K POINTS IN THE IBZ     28
 SHRINKING FACTOR(GILAT NET)   24  NUMBER OF K POINTS(GILAT NET)     91
 *******************************************************************************
 *** K POINTS COORDINATES (OBLIQUE COORDINATES IN UNITS OF IS = 12)
   1-R(  0  0  0)   2-C(  1  0  0)   3-C(  2  0  0)   4-C(  3  0  0)
   5-C(  4  0  0)   6-C(  5  0  0)   7-R(  6  0  0)   8-C(  1  1  0)
   9-C(  2  1  0)  10-C(  3  1  0)  11-C(  4  1  0)  12-C(  5  1  0)
  13-C(  6  1  0)  14-C(  2  2  0)  15-C(  3  2  0)  16-C(  4  2  0)
  17-C(  5  2  0)  18-C(  6  2  0)  19-C(  3  3  0)  20-C(  4  3  0)
  21-C(  5  3  0)  22-C(  6  3  0)  23-C(  4  4  0)  24-C(  5  4  0)
  25-C(  6  4  0)  26-C(  5  5  0)  27-C(  6  5  0)  28-R(  6  6  0)

 DIRECT LATTICE VECTORS COMPON. (A.U.)     RECIP. LATTICE VECTORS COMPON. (A.U.) 
        X            Y            Z              X            Y            Z
    5.6876764    0.0000000    0.0000000      1.1047016    0.0000000    0.0000000
   -0.0000000    5.6876764    0.0000000      0.0000000    1.1047016    0.0000000
    0.0000000    0.0000000  944.8630670      0.0000000    0.0000000    0.0066498

 DISK SPACE FOR EIGENVECTORS (FTN 10)       76532 REALS

 SYMMETRY ADAPTION OF THE BLOCH FUNCTIONS ENABLED
 TTTTTTTTTTTTTTTTTTTTTTTTTTTTTT gordsh1     TELAPSE        0.01 TCPU        0.01

 MATRIX SIZE: P(G)   21446, F(G)    4750, P(G) IRR    1978, F(G) IRR     973
 MAX G-VECTOR INDEX FOR 1- AND 2-ELECTRON INTEGRALS  61

 TTTTTTTTTTTTTTTTTTTTTTTTTTTTTT INPUT       TELAPSE        0.01 TCPU        0.01

 NEIGHBORS OF THE NON-EQUIVALENT ATOMS

 N = NUMBER OF NEIGHBORS AT DISTANCE R
    ATOM  N     R/ANG      R/AU   NEIGHBORS (ATOM LABELS AND CELL INDICES)
   1 XX   1     2.0000     3.7795    6 O    0 0 0
   1 XX   1     2.1282     4.0218    3 XX   0 0 0
   1 XX   4     2.1282     4.0218    4 XX   0 0 0    4 XX  -1 0 0    4 XX   0 1 0
                                     4 XX  -1 1 0
   1 XX   4     3.0098     5.6877    2 XX   0 0 0    2 XX  -1 0 0    2 XX   0 1 0
                                     2 XX  -1 1 0
   1 XX   4     3.0098     5.6877    1 XX  -1 0 0    1 XX   1 0 0    1 XX   0-1 0
                                     1 XX   0 1 0
   1 XX   4     3.6137     6.8289    6 O   -1 0 0    6 O    1 0 0    6 O    0-1 0
                                     6 O    0 1 0

   3 XX   1     2.1282     4.0218    1 XX   0 0 0
   3 XX   4     2.1282     4.0218    2 XX   0 0 0    2 XX  -1 0 0    2 XX   0 1 0
                                     2 XX  -1 1 0
   3 XX   4     2.9205     5.5190    5 O    0 0 0    5 O   -1 0 0    5 O    0 1 0
                                     5 O   -1 1 0
   3 XX   4     3.0098     5.6877    4 XX   0 0 0    4 XX  -1 0 0    4 XX   0 1 0
                                     4 XX  -1 1 0
   3 XX   4     3.0098     5.6877    3 XX  -1 0 0    3 XX   1 0 0    3 XX   0-1 0
                                     3 XX   0 1 0
   3 XX   4     3.6862     6.9660    1 XX  -1 0 0    1 XX   1 0 0    1 XX   0-1 0
                                     1 XX   0 1 0

   5 O    1     2.0000     3.7795    2 XX   0 0 0
   5 O    4     2.9205     5.5190    3 XX   0 0 0    3 XX   1 0 0    3 XX   0-1 0
                                     3 XX   1-1 0
   5 O    4     3.0098     5.6877    5 O   -1 0 0    5 O    1 0 0    5 O    0-1 0
                                     5 O    0 1 0
   5 O    4     3.6137     6.8289    2 XX  -1 0 0    2 XX   1 0 0    2 XX   0-1 0
                                     2 XX   0 1 0
   5 O    1     4.1282     7.8012    4 XX   0 0 0
   5 O    4     4.2565     8.0436    5 O   -1-1 0    5 O    1 1 0    5 O   -1 1 0
                                     5 O    1-1 0


 SYMMETRY ALLOWED INTERNAL DEGREE(S) OF FREEDOM:   3
 TTTTTTTTTTTTTTTTTTTTTTTTTTTTTT SYMM        TELAPSE        0.02 TCPU        0.02
 TTTTTTTTTTTTTTTTTTTTTTTTTTTTTT INT_SCREEN  TELAPSE        0.02 TCPU        0.02
 INFORMATION **** EXCBUF **** EXCH. BIPO BUFFER: WORDS USED =      101763

 DFT PARAMETERS

     ATOM       ELECTRONS   NET CHARGE   R(ANGSTROM)
   1   0  XX      0.0000      0.0000     0.50000000
   5   8  O       8.0000      0.0000     0.74000000

 SIZE OF GRID=      58034
 TTTTTTTTTTTTTTTTTTTTTTTTTTTTTT MAKE_GRID2  TELAPSE        0.07 TCPU        0.06
 BECKE WEIGHT FUNCTION
 RADSAFE =     2.00
 TOLERANCES - DENSITY:10**- 6; POTENTIAL:10**- 9; GRID WGT:10**-14

 RADIAL INTEGRATION  - INTERVALS (POINTS,UPPER LIMIT):            1( 99,  4.0*R)

 ANGULAR INTEGRATION - INTERVALS (ACCURACY LEVEL [N. POINTS] UPPER LIMIT):
  1(  6[ 146]   0.2)  2( 11[ 302]   0.5)  3( 14[ 590]   0.9)  4( 18[1454]   3.5)
  5( 14[ 590]9999.0)

 GHOST ATOMS - REMOVAL OF NUCLEAR CHARGE AND ELECTRONS
 TOTAL NUCLEAR CHARGE        1.600000E+01
 TOTAL ELECTRONIC CHARGE     1.600000E+01
 TTTTTTTTTTTTTTTTTTTTTTTTTTTTTT INT_CALC    TELAPSE        0.07 TCPU        0.06
 EEEEEEEEEE INT_CALC TERMINATION  DATE 01 02 2022 TIME 14:09:53.0

 *******************************************************************************
 Adsorption tests                                                                
 CRYSTAL - SCF - TYPE OF CALCULATION :  RESTRICTED CLOSED SHELL
 *******************************************************************************

 CAPPA:IS1 12;IS2 12;IS3  1; K PTS MONK NET  28; SYMMOPS:K SPACE  16;G SPACE   8

 TTTTTTTTTTTTTTTTTTTTTTTTTTTTTT SDIK        TELAPSE        0.07 TCPU        0.07

 AAAAAAAAAAAAAAAAAAAAAAAAAAAAAAAAAAAAAAAAAAAAAAAAAAAAAAAAAAAAAAAAAAAAAAAAAAAAAAA
         ATOMIC WAVEFUNCTION(S)


 NUCLEAR CHARGE  8.0  SYMMETRY SPECIES            S    P
 N. ELECTRONS    8.0  NUMBER OF PRIMITIVE GTOS    6    3
                      NUMBER OF CONTRACTED GTOS   2    1
                      NUMBER OF CLOSED SHELLS     2    0
                      OPEN SHELL OCCUPATION       0    4

  ZNUC SCFIT  TOTAL HF ENERGY   KINETIC ENERGY   VIRIAL THEOREM ACCURACY
   8.0   1   -7.380415023E+01  7.344495887E+01 -2.004890620E+00  0.0E+00

 AAAAAAAAAAAAAAAAAAAAAAAAAAAAAAAAAAAAAAAAAAAAAAAAAAAAAAAAAAAAAAAAAAAAAAAAAAAAAAA

 CHARGE NORMALIZATION FACTOR   1.00000000
 TOTAL ATOMIC CHARGES:
   0.0000000   0.0000000   0.0000000   0.0000000   8.0000000   8.0000000
 TTTTTTTTTTTTTTTTTTTTTTTTTTTTTT MOQGAD      TELAPSE        0.08 TCPU        0.08
 TTTTTTTTTTTTTTTTTTTTTTTTTTTTTT SHELLXN     TELAPSE        3.03 TCPU        3.03
 TTTTTTTTTTTTTTTTTTTTTTTTTTTTTT MONMO3      TELAPSE        3.05 TCPU        3.05
 NUMERICALLY INTEGRATED DENSITY     15.9999091098
 TTTTTTTTTTTTTTTTTTTTTTTTTTTTTT NUMDFT      TELAPSE        3.36 TCPU        3.36
 CYC   0 ETOT(AU) -1.476751525129E+02 DETOT -1.48E+02 tst  0.00E+00 PX  1.00E+00
 TTTTTTTTTTTTTTTTTTTTTTTTTTTTTT DIIS        TELAPSE        3.37 TCPU        3.36
 TTTTTTTTTTTTTTTTTTTTTTTTTTTTTT FDIK        TELAPSE        3.38 TCPU        3.38
 POSSIBLY CONDUCTING STATE - EFERMI(AU) -1.3939843E-01 (RES. CHARGE  1.05E-12;IT. 10)
 TTTTTTTTTTTTTTTTTTTTTTTTTTTTTT PDIG        TELAPSE        3.38 TCPU        3.38
 CHARGE NORMALIZATION FACTOR   1.00000000
 TOTAL ATOMIC CHARGES:
   0.1838448   0.1838448   0.0007982   0.0007982   7.8153571   7.8153571
 TTTTTTTTTTTTTTTTTTTTTTTTTTTTTT MOQGAD      TELAPSE        3.39 TCPU        3.39
 TTTTTTTTTTTTTTTTTTTTTTTTTTTTTT SHELLXN     TELAPSE        6.40 TCPU        6.40
 TTTTTTTTTTTTTTTTTTTTTTTTTTTTTT MONMO3      TELAPSE        6.43 TCPU        6.42
 NUMERICALLY INTEGRATED DENSITY     15.9998968140
 TTTTTTTTTTTTTTTTTTTTTTTTTTTTTT NUMDFT      TELAPSE        7.20 TCPU        7.20
 CYC   1 ETOT(AU) -1.478186406109E+02 DETOT -1.43E-01 tst  0.00E+00 PX  1.00E+00
 TTTTTTTTTTTTTTTTTTTTTTTTTTTTTT DIIS        TELAPSE        7.20 TCPU        7.20
 DIIS TEST: 0.84070E-02 AT SCF   CYCLE   1 - MIX   30 %
 TTTTTTTTTTTTTTTTTTTTTTTTTTTTTT FDIK        TELAPSE        7.21 TCPU        7.20
 POSSIBLY CONDUCTING STATE - EFERMI(AU) -1.6131245E-01 (RES. CHARGE  7.20E-10;IT. 10)
 TTTTTTTTTTTTTTTTTTTTTTTTTTTTTT PDIG        TELAPSE        7.21 TCPU        7.21
 CHARGE NORMALIZATION FACTOR   1.00000000
 TOTAL ATOMIC CHARGES:
   0.1342059   0.1342059   0.0003961   0.0003961   7.8653980   7.8653980
 TTTTTTTTTTTTTTTTTTTTTTTTTTTTTT MOQGAD      TELAPSE        7.22 TCPU        7.22
 TTTTTTTTTTTTTTTTTTTTTTTTTTTTTT SHELLXN     TELAPSE       10.24 TCPU       10.23
 TTTTTTTTTTTTTTTTTTTTTTTTTTTTTT MONMO3      TELAPSE       10.26 TCPU       10.25
 NUMERICALLY INTEGRATED DENSITY     15.9998987405
 TTTTTTTTTTTTTTTTTTTTTTTTTTTTTT NUMDFT      TELAPSE       11.03 TCPU       11.03
 CYC   2 ETOT(AU) -1.478246786508E+02 DETOT -6.04E-03 tst  1.31E-03 PX  6.13E-02
 TTTTTTTTTTTTTTTTTTTTTTTTTTTTTT DIIS        TELAPSE       11.04 TCPU       11.03
 DIIS TEST: 0.25910E-04 AT SCF   CYCLE   2 - DIIS ACTIVE - HISTORY:     2 CYCLES
 TTTTTTTTTTTTTTTTTTTTTTTTTTTTTT FDIK        TELAPSE       11.04 TCPU       11.04
 POSSIBLY CONDUCTING STATE - EFERMI(AU) -1.6442085E-01 (RES. CHARGE  3.19E-10;IT.  8)
 TTTTTTTTTTTTTTTTTTTTTTTTTTTTTT PDIG        TELAPSE       11.05 TCPU       11.04
 CHARGE NORMALIZATION FACTOR   1.00000000
 TOTAL ATOMIC CHARGES:
   0.1319022   0.1319022   0.0003825   0.0003825   7.8677152   7.8677152
 TTTTTTTTTTTTTTTTTTTTTTTTTTTTTT MOQGAD      TELAPSE       11.05 TCPU       11.05
 TTTTTTTTTTTTTTTTTTTTTTTTTTTTTT SHELLXN     TELAPSE       14.07 TCPU       14.06
 TTTTTTTTTTTTTTTTTTTTTTTTTTTTTT MONMO3      TELAPSE       14.09 TCPU       14.08
 NUMERICALLY INTEGRATED DENSITY     15.9998987864
 TTTTTTTTTTTTTTTTTTTTTTTTTTTTTT NUMDFT      TELAPSE       14.86 TCPU       14.86
 CYC   3 ETOT(AU) -1.478247033396E+02 DETOT -2.47E-05 tst  1.31E-05 PX  8.74E-03
 TTTTTTTTTTTTTTTTTTTTTTTTTTTTTT DIIS        TELAPSE       14.87 TCPU       14.86
 DIIS TEST: 0.15505E-05 AT SCF   CYCLE   3 - DIIS ACTIVE - HISTORY:     3 CYCLES
 TTTTTTTTTTTTTTTTTTTTTTTTTTTTTT FDIK        TELAPSE       14.87 TCPU       14.86
 POSSIBLY CONDUCTING STATE - EFERMI(AU) -1.6439600E-01 (RES. CHARGE  0.00E+00;IT.  6)
 TTTTTTTTTTTTTTTTTTTTTTTTTTTTTT PDIG        TELAPSE       14.88 TCPU       14.87
 CHARGE NORMALIZATION FACTOR   1.00000000
 TOTAL ATOMIC CHARGES:
   0.1316298   0.1316298   0.0003813   0.0003813   7.8679889   7.8679889
 TTTTTTTTTTTTTTTTTTTTTTTTTTTTTT MOQGAD      TELAPSE       14.88 TCPU       14.88
 TTTTTTTTTTTTTTTTTTTTTTTTTTTTTT SHELLXN     TELAPSE       17.90 TCPU       17.89
 TTTTTTTTTTTTTTTTTTTTTTTTTTTTTT MONMO3      TELAPSE       17.92 TCPU       17.91
 NUMERICALLY INTEGRATED DENSITY     15.9998987951
 TTTTTTTTTTTTTTTTTTTTTTTTTTTTTT NUMDFT      TELAPSE       18.70 TCPU       18.69
 CYC   4 ETOT(AU) -1.478246984601E+02 DETOT  4.88E-06 tst  1.33E-06 PX  2.73E-03
 TTTTTTTTTTTTTTTTTTTTTTTTTTTTTT DIIS        TELAPSE       18.70 TCPU       18.69
 DIIS TEST: 0.51658E-08 AT SCF   CYCLE   4 - DIIS ACTIVE - HISTORY:     4 CYCLES
 TTTTTTTTTTTTTTTTTTTTTTTTTTTTTT FDIK        TELAPSE       18.70 TCPU       18.70
 POSSIBLY CONDUCTING STATE - EFERMI(AU) -1.6437944E-01 (RES. CHARGE  8.88E-16;IT.  6)
 TTTTTTTTTTTTTTTTTTTTTTTTTTTTTT PDIG        TELAPSE       18.71 TCPU       18.70
 CHARGE NORMALIZATION FACTOR   1.00000000
 TOTAL ATOMIC CHARGES:
   0.1317021   0.1317021   0.0003811   0.0003811   7.8679168   7.8679168
 TTTTTTTTTTTTTTTTTTTTTTTTTTTTTT MOQGAD      TELAPSE       18.72 TCPU       18.71
 TTTTTTTTTTTTTTTTTTTTTTTTTTTTTT SHELLXN     TELAPSE       21.73 TCPU       21.72
 TTTTTTTTTTTTTTTTTTTTTTTTTTTTTT MONMO3      TELAPSE       21.75 TCPU       21.74
 NUMERICALLY INTEGRATED DENSITY     15.9998987889
 TTTTTTTTTTTTTTTTTTTTTTTTTTTTTT NUMDFT      TELAPSE       22.53 TCPU       22.52
 CYC   5 ETOT(AU) -1.478246975524E+02 DETOT  9.08E-07 tst  8.24E-07 PX  2.58E-03
 TTTTTTTTTTTTTTTTTTTTTTTTTTTTTT DIIS        TELAPSE       22.53 TCPU       22.52
 DIIS TEST: 0.14173E-08 AT SCF   CYCLE   5 - DIIS ACTIVE - HISTORY:     5 CYCLES
 TTTTTTTTTTTTTTTTTTTTTTTTTTTTTT FDIK        TELAPSE       22.53 TCPU       22.53
 POSSIBLY CONDUCTING STATE - EFERMI(AU) -1.6438071E-01 (RES. CHARGE  7.46E-12;IT.  4)
 TTTTTTTTTTTTTTTTTTTTTTTTTTTTTT PDIG        TELAPSE       22.54 TCPU       22.53
 CHARGE NORMALIZATION FACTOR   1.00000000
 TOTAL ATOMIC CHARGES:
   0.1315726   0.1315726   0.0003811   0.0003811   7.8680463   7.8680463
 TTTTTTTTTTTTTTTTTTTTTTTTTTTTTT MOQGAD      TELAPSE       22.54 TCPU       22.54
 TTTTTTTTTTTTTTTTTTTTTTTTTTTTTT SHELLXN     TELAPSE       25.56 TCPU       25.55

 ::: DIPOLE MOMENT ALONG NON PERIODIC DIRECTIONS:
 ::: A.U.     (Z)  0.00000E+00
 ::: DEBYE         0.00000E+00

 +++ ENERGIES IN A.U. +++
 ::: EXT EL-POLE                                  -2.4951386247758E+02
 ::: EXT EL-SPHEROPOLE                             0.0000000000000E+00
 ::: BIELET ZONE E-E                               1.3254757391202E+02
 ::: TOTAL E-E                                    -1.1696628856556E+02
 ::: TOTAL E-N + N-E                               2.4719266282430E+01
 ::: TOTAL N-N                                    -1.8784178614712E+02
 ::: KINETIC ENERGY                                1.4580265998602E+02
 ::: PSEUDO TOTAL   ENERGY                        -1.3428614844424E+02
 ::: VIRIAL COEFFICIENT                            1.0411173570494E+00
 TTTTTTTTTTTTTTTTTTTTTTTTTTTTTT MONMO3      TELAPSE       25.58 TCPU       25.57
 NUMERICALLY INTEGRATED DENSITY     15.9998987971
 TTTTTTTTTTTTTTTTTTTTTTTTTTTTTT NUMDFT      TELAPSE       26.36 TCPU       26.35
 CYC   6 ETOT(AU) -1.478246934486E+02 DETOT  4.10E-06 tst  5.70E-07 PX  2.58E-03

 == SCF ENDED - CONVERGENCE ON ENERGY      E(AU) -1.4782469344859E+02 CYCLES   6


 ENERGY EXPRESSION=HARTREE+FOCK EXCH*0.20000+(BECKE      EXCH)*0.80000+LYP        CORR


 TOTAL ENERGY(DFT)(AU)(  6) -1.4782469344859E+02 DE 4.1E-06 tester 5.7E-07
 TTTTTTTTTTTTTTTTTTTTTTTTTTTTTT EDFT        TELAPSE       26.36 TCPU       26.35
 EIGENVECTORS IN FORTRAN UNIT  8
 TTTTTTTTTTTTTTTTTTTTTTTTTTTTTT END         TELAPSE       26.37 TCPU       26.36
 EEEEEEEEEE TERMINATION  DATE 01 02 2022 TIME 14:10:19.3
Tue  1 Feb 2022 14:10:19 GMT
Contents of temporary directory:
total 3296
-rw-r--r--  1 brunocamino  admin   46752  1 Feb 14:10 diis_Fg
-rw-r--r--  1 brunocamino  admin    9888  1 Feb 14:10 diis_Fia1
-rw-r--r--  1 brunocamino  admin   12360  1 Feb 14:10 diis_Fia2
-rw-r--r--  1 brunocamino  admin       0  1 Feb 14:09 diis_Sk
-rw-r--r--  1 brunocamino  admin  431880  1 Feb 14:10 fort.10
-rw-r--r--  1 brunocamino  admin    7792  1 Feb 14:10 fort.11
-rw-r--r--  1 brunocamino  admin    2567  1 Feb 14:09 fort.34
-rw-r--r--  1 brunocamino  admin   52944  1 Feb 14:09 fort.61
-rw-r--r--  1 brunocamino  admin   25024  1 Feb 14:09 fort.62
-rw-r--r--  1 brunocamino  admin  431880  1 Feb 14:10 fort.8
-rw-r--r--  1 brunocamino  admin  137476  1 Feb 14:10 fort.9
-rw-r--r--  1 brunocamino  admin   21448  1 Feb 14:10 fort.95
-rw-r--r--  1 brunocamino  admin  349923  1 Feb 14:10 fort.98
wave function binary file /Users/brunocamino/Desktop/Imperial/crystal-code-tools/CRYSTALpy/examples/data/density/adsorbate.f9
file fort.98 saved as /Users/brunocamino/Desktop/Imperial/crystal-code-tools/CRYSTALpy/examples/data/density/adsorbate.f98
geometry input file fort.34 saved as /Users/brunocamino/Desktop/Imperial/crystal-code-tools/CRYSTALpy/examples/data/density/adsorbate.gui
temporary directory /Users/brunocamino/crystal/tmp removed
