date Thu 3 Feb 2022 16:44:26 GMT
hostname MacBook-Pro-3.local
system Darwin MacBook-Pro-3.local 20.6.0 Darwin Kernel Version 20.6.0: Wed Nov 10 22:23:05 PST 2021; root:xnu-7195.141.14~1/RELEASE_ARM64_T8101 arm64
user brunocamino
output data in /Users/brunocamino/Desktop/Imperial/crystal-code-tools/CRYSTALpytools/examples/data/density/../../../examples/data/density/system_guessp.out
crystal executable in /Users/brunocamino/crystal
input data in /Users/brunocamino/Desktop/Imperial/crystal-code-tools/CRYSTALpytools/examples/data/density/../../../examples/data/density/system_guessp.d12
temporary directory /Users/brunocamino/crystal/tmp
scf guess from /Users/brunocamino/Desktop/Imperial/crystal-code-tools/CRYSTALpytools/examples/data/density/../../../examples/data/density/system_guessp.f9
external geometry input from /Users/brunocamino/Desktop/Imperial/crystal-code-tools/CRYSTALpytools/examples/data/density/../../../examples/data/density/system_guessp.gui
external geometry input saved in /Users/brunocamino/Desktop/Imperial/crystal-code-tools/CRYSTALpytools/examples/data/density/../../../examples/data/density/system_guessp_inp.gui
file fort.20 from /Users/brunocamino/Desktop/Imperial/crystal-code-tools/CRYSTALpytools/examples/data/density/../../../examples/data/density/system_guessp.f20
file fort.13 from /Users/brunocamino/Desktop/Imperial/crystal-code-tools/CRYSTALpytools/examples/data/density/../../../examples/data/density/system_guessp.f13
Adsorption tests
EXTERNAL
EXTPRT
BASISSET
STO-3G
DFT
B3LYP
XXLGRID
ENDDFT
GUESSP
TOLINTEG
7 7 7 7 14
SHRINK
12 24
MAXCYCLE
200
FMIXING
70
DIIS
ENDSCF

         
 *******************************************************************************
 *                                                                             *
 *                               CRYSTAL17                                     *
 *                      public : 1.0.2 - March 1st, 2018                       *
 *                       HTTP://WWW.CRYSTAL.UNITO.IT                           *
 *                                                                             *
 *                              MAIN AUTHORS                                   *
 *                                                                             *
 *  R. DOVESI(1,11), V.R. SAUNDERS(2), C. ROETTI(1,11), R. ORLANDO(1,11),      *
 *  C.M. ZICOVICH-WILSON(1,3), F. PASCALE(4), B. CIVALLERI(1,11),              *
 *  K. DOLL(5), N.M. HARRISON(2,6), I.J. BUSH(7), Ph. D'ARCO(8),               *
 *  M. LLUNELL(9), M. CAUSA'(10), Y. NOEL(8), L. MASCHIO(1,11), A. ERBA(1,11)  *
 *  M. RE'RAT(14), S. CASASSA(1,11)                                            *
 *                                                                             *
 *        CONTRIBUTIONS TO THE CODE HAVE ALSO BEEN GIVEN BY                    *
 *                                                                             *
 *  M. FERRABONE(1,11), M. DE LA PIERRE(1,11), M. FERRERO(1,11),               *
 *  J. BAIMA(1,11), E. ALBANESE(1,11), M.F. PEINTINGER(12), R. BAST(13),       *
 *  B. KIRTMAN(15), V. LACIVITA(1,11), R. DEMICHELIS(1,16)                     *
 *  G. BRANDEBURG(17), S. SALUSTRO(1,11), G. SANSONE(1,11)                     *
 *  M.T. RUGGIERO(18)                                                          *
 *                                                                             *
 * (1) THEORETICAL CHEMISTRY GROUP - UNIVERSITA' DI TORINO - TORINO (ITALY)    *
 * (2) COMPUTATIONAL SCIENCE & ENGINEERING DEPARTMENT - STFC DARESBURY (UK)    *
 * (3) UNIVERSIDAD AUTONOMA DEL ESTADO DE MORELOS - CUERNAVACA (MEXICO)        *
 * (4) UNIVERSITE' DE LORRAINE - NANCY (FRANCE)                                *
 * (5) UNIVERSITAET STUTTGART- STUTTGART (GERMANY)                             *
 * (6) IMPERIAL COLLEGE - LONDON (UK)                                          *
 * (7) OXFORD E-RESEARCH CENTRE - OXFORD (UK)                                  *
 * (8) UPMC - SORBONNE UNIVERSITES - PARIS (FRANCE)                            *
 * (9) UNIVERSIDAD DE BARCELONA - BARCELONA (SPAIN)                            *
 *(10) UNIVERSITA' DI NAPOLI "FEDERICO II" - NAPOLI (ITALY)                    *
 *(11) NIS - NANOSTRUCTURED INTERFACES AND SURFACES - TORINO (ITALY)           *
 *(12) MPI FUER CHEMISCHE ENERGIEKONVERSION - MUELHEIM AN DER RUHR (GERMANY)   *
 *(13) UNIVERSITY OF TROMSO - TROMSO (NORWAY)                                  *
 *(14) UNIVERSITE' DE PAU ET DES PAYS DE L'ADOUR - PAU (FRANCE)                *
 *(15) UNIVERSITY OF CALIFORNIA SANTA BARBARA - SANTA BARBARA (USA)            *
 *(16) CURTIN UNIVERSITY - PERTH (AUSTRALIA)                                   *
 *(17) UNIVERSITY COLLEGE LONDON - LONDON (UK)                                 *
 *(18) CAMBRIDGE UNIVERSITY - CAMBRIDGE (UK)                                   *
 *                                                                             *
 *******************************************************************************
 EEEEEEEEEE STARTING  DATE 03 02 2022 TIME 16:44:26.5
 Adsorption tests                                                                

 GEOMETRY INPUT FROM EXTERNAL FILE (FORTRAN UNIT 34)
 2D - SLAB    

 *******************************************************************************
 LATTICE PARAMETERS  (ANGSTROMS AND DEGREES) - PRIMITIVE CELL
       A          B          C        ALPHA      BETA     GAMMA        VOLUME
    3.00979    3.00979  500.00000    90.00000  90.00000  90.00000      9.058828
 INFORMATION **** CHKGRP **** SPGR WITH NO INVERSION

 NUMBER OF IRREDUCIBLE ATOMS IN THE CELL:    3

 CARTESIAN COORDINATES (ANGSTROM) - IRREDUCIBLE ATOMS AND SYMMETRY RELATED

 AT.IRR.  AT  AT.N.          X                   Y                   Z
     1     1    12    0.000000000000E+00  1.504894350205E+00  1.064120000000E+00
     1     2    12    1.504894350205E+00  0.000000000000E+00 -1.064120000000E+00
     3     3     8    0.000000000000E+00  1.504894350205E+00 -1.064120000000E+00
     3     4     8    1.504894350205E+00  0.000000000000E+00  1.064120000000E+00
     5     5     8    1.504894350205E+00  0.000000000000E+00 -3.064120000000E+00
     5     6     8    0.000000000000E+00  1.504894350205E+00  3.064120000000E+00

 SYMMETRY CHANGED DURING OLD RUN :  INFORMATION ON SPACE GROUP LOST 
 NUMBER OF SYMMETRY OPERATORS         :    8
 *******************************************************************************
 LATTICE PARAMETERS (ANGSTROMS AND DEGREES) - BOHR = 0.5291772083 ANGSTROM
 PRIMITIVE CELL
         A              B              C           ALPHA      BETA       GAMMA 
     3.00978870     3.00978870   500.00000000    90.000000  90.000000  90.000000
 *******************************************************************************
 ATOMS IN THE ASYMMETRIC UNIT    3 - ATOMS IN THE UNIT CELL:    6
     ATOM                 X/A                 Y/B             Z(ANGSTROM)
 *******************************************************************************
      1 T  12 MG    3.061616997863E-17 -5.000000000000E-01  1.064120000000E+00
      2 F  12 MG   -5.000000000000E-01  0.000000000000E+00 -1.064120000000E+00
      3 T   8 O     3.061616997863E-17 -5.000000000000E-01 -1.064120000000E+00
      4 F   8 O    -5.000000000000E-01  0.000000000000E+00  1.064120000000E+00
      5 T   8 O    -5.000000000000E-01  0.000000000000E+00 -3.064120000000E+00
      6 F   8 O     3.061616997863E-17 -5.000000000000E-01  3.064120000000E+00

 T = ATOM BELONGING TO THE ASYMMETRIC UNIT
 *******************************************************************************
 * GEOMETRY EDITING - INPUT COORDINATES ARE GIVEN IN ANGSTROM         
 *******************************************************************************

 GEOMETRY NOW FULLY CONSISTENT WITH THE GROUP

 GCALCO - MAX INDICES DIRECT LATTICE VECTOR    83    83     0
 NO.OF VECTORS CREATED 6999 STARS  686 RMAX   268.28716 BOHR

 GEOMETRY FOR WAVE FUNCTION - DIMENSIONALITY OF THE SYSTEM    2
 (NON PERIODIC DIRECTION: LATTICE PARAMETER FORMALLY SET TO 500)
 *******************************************************************************
 LATTICE PARAMETERS (ANGSTROMS AND DEGREES) - BOHR = 0.5291772083 ANGSTROM
 PRIMITIVE CELL
         A              B              C           ALPHA      BETA       GAMMA 
     3.00978870     3.00978870   500.00000000    90.000000  90.000000  90.000000
 *******************************************************************************
 ATOMS IN THE ASYMMETRIC UNIT    3 - ATOMS IN THE UNIT CELL:    6
     ATOM                 X/A                 Y/B             Z(ANGSTROM)
 *******************************************************************************
      1 T  12 MG    0.000000000000E+00 -5.000000000000E-01  1.064120000000E+00
      2 F  12 MG   -5.000000000000E-01  3.061616997863E-17 -1.064120000000E+00
      3 T   8 O     0.000000000000E+00 -5.000000000000E-01 -1.064120000000E+00
      4 F   8 O    -5.000000000000E-01  3.061616997863E-17  1.064120000000E+00
      5 T   8 O    -5.000000000000E-01  0.000000000000E+00 -3.064120000000E+00
      6 F   8 O    -3.061616997863E-17 -5.000000000000E-01  3.064120000000E+00

 T = ATOM BELONGING TO THE ASYMMETRIC UNIT

 ****    8 SYMMOPS - TRANSLATORS IN FRACTIONAL UNITS
 **** MATRICES AND TRANSLATORS IN THE CRYSTALLOGRAPHIC REFERENCE FRAME
   V INV                    ROTATION MATRICES                   TRANSLATORS
   1   1  1.00  0.00  0.00  0.00  1.00  0.00  0.00  0.00  1.00  0.00  0.00  0.00
   2   2 -1.00  0.00  0.00  0.00 -1.00  0.00  0.00  0.00  1.00  0.00  0.00  0.00
   3   3 -0.00 -1.00  0.00 -1.00  0.00  0.00  0.00  0.00 -1.00  0.00  0.00  0.00
   4   4  0.00  1.00  0.00  1.00 -0.00  0.00  0.00  0.00 -1.00  0.00  0.00  0.00
   5   6 -0.00  1.00  0.00 -1.00  0.00  0.00  0.00  0.00 -1.00  0.00  0.00  0.00
   6   5  0.00 -1.00  0.00  1.00 -0.00  0.00  0.00  0.00 -1.00  0.00  0.00  0.00
   7   7 -1.00  0.00  0.00  0.00  1.00  0.00  0.00  0.00  1.00  0.00  0.00  0.00
   8   8  1.00 -0.00  0.00  0.00 -1.00  0.00  0.00  0.00  1.00  0.00  0.00  0.00

 DIRECT LATTICE VECTORS CARTESIAN COMPONENTS (ANGSTROM)
          X                    Y                    Z
   0.300978870041E+01   0.000000000000E+00   0.000000000000E+00
  -0.184296404903E-15   0.300978870041E+01   0.000000000000E+00
   0.000000000000E+00   0.000000000000E+00   0.500000000000E+03


 CARTESIAN COORDINATES - PRIMITIVE CELL
 *******************************************************************************
 *      ATOM          X(ANGSTROM)         Y(ANGSTROM)         Z(ANGSTROM)
 *******************************************************************************
    1    12 MG   -9.214820245150E-17  1.504894350205E+00  1.064120000000E+00
    2    12 MG    1.504894350205E+00  9.214820245150E-17 -1.064120000000E+00
    3     8 O    -9.214820245150E-17  1.504894350205E+00 -1.064120000000E+00
    4     8 O     1.504894350205E+00  9.214820245150E-17  1.064120000000E+00
    5     8 O     1.504894350205E+00  0.000000000000E+00 -3.064120000000E+00
    6     8 O    -1.842964049030E-16  1.504894350205E+00  3.064120000000E+00

 *******************************************************************************
 STARTING BASIS SET HANDLING 
 *******************************************************************************

 Loading internal basis set: STO-3G              

 Please cite in your publication:
 H - Ne: W.J. Hehre, R.F. Stewart and J.A. Pople, J. Chem. Phys. 2657 (1969).   
                                                                                
                                                                                
                    
 Na - Ar: W.J. Hehre, R. Ditchfield, R.F. Stewart, J.A. Pople, J. Chem. Phys.  2
 769 (1970).                                                                    
                                                                                
                    
 K,Ca: W.J. Pietro, B.A. Levy, W.J. Hehre and R.F. Stewart, Inorg. Chem., 1980, 
 19 (8), pp 2225-2229                                                           
                                                                                
                    
 Ga-Kr: J. Am. Chem. Soc. 19, 2225 (1980).                                      
                                                                                
                                                                                
                    
 Sc-Zn, Y-Cd: W.J. Pietro and W.J. Hehre, J. Comp. Chem. 4, 241 (1983).         
                                                                                
                                                                                
                    

 *******************************************************************************
 LOCAL ATOMIC FUNCTIONS BASIS SET
 *******************************************************************************
   ATOM   X(AU)   Y(AU)   Z(AU)  N. TYPE  EXPONENT  S COEF   P COEF   D/F/G COEF
 *******************************************************************************
   1 MG  -0.000   2.844   2.011
                                  1 S  
                                         2.992E+02 1.543E-01 0.000E+00 0.000E+00
                                         5.451E+01 5.353E-01 0.000E+00 0.000E+00
                                         1.475E+01 4.446E-01 0.000E+00 0.000E+00
                                  2 S  
                                         1.512E+01-9.997E-02 0.000E+00 0.000E+00
                                         3.514E+00 3.995E-01 0.000E+00 0.000E+00
                                         1.143E+00 7.001E-01 0.000E+00 0.000E+00
                                  3 S  
                                         1.395E+00-2.196E-01 0.000E+00 0.000E+00
                                         3.893E-01 2.256E-01 0.000E+00 0.000E+00
                                         1.524E-01 9.004E-01 0.000E+00 0.000E+00
                           4-     6 P  
                                         1.512E+01 0.000E+00 1.559E-01 0.000E+00
                                         3.514E+00 0.000E+00 6.077E-01 0.000E+00
                                         1.143E+00 0.000E+00 3.920E-01 0.000E+00
                           7-     9 P  
                                         1.395E+00 0.000E+00 1.059E-02 0.000E+00
                                         3.893E-01 0.000E+00 5.952E-01 0.000E+00
                                         1.524E-01 0.000E+00 4.620E-01 0.000E+00
   2 MG   2.844   0.000  -2.011
   3 O   -0.000   2.844  -2.011
                                 19 S  
                                         1.307E+02 1.543E-01 0.000E+00 0.000E+00
                                         2.381E+01 5.353E-01 0.000E+00 0.000E+00
                                         6.444E+00 4.446E-01 0.000E+00 0.000E+00
                                 20 S  
                                         5.033E+00-9.997E-02 0.000E+00 0.000E+00
                                         1.170E+00 3.995E-01 0.000E+00 0.000E+00
                                         3.804E-01 7.001E-01 0.000E+00 0.000E+00
                          21-    23 P  
                                         5.033E+00 0.000E+00 1.559E-01 0.000E+00
                                         1.170E+00 0.000E+00 6.077E-01 0.000E+00
                                         3.804E-01 0.000E+00 3.920E-01 0.000E+00
   4 O    2.844   0.000   2.011
   5 O    2.844   0.000  -5.790
   6 O   -0.000   2.844   5.790

 *******************************************************************************
 FINISHED BASIS SET HANDLING 
 *******************************************************************************

 INFORMATION **** SET_MPP **** PCRYSTAL CALCULATION
 INFORMATION **** READM2 **** NEW DEFAULT: FOCK/KS MATRIX MIXING SET TO 30 %
 INFORMATION **** READM2 **** NEW DEFAULT: FULL DIRECT SCF MODE
 INFORMATION **** READM2 **** NEW DEFAULT: COULOMB BIPOLAR BUFFER SET TO 32 Mb
 INFORMATION **** READM2 **** NEW DEFAULT: EXCHANGE BIPOLAR BUFFER SET TO 32 Mb

 *******************************************************************************
 NEW DEFAULT: DFT INTEGRATION GRID INCREASED TO XLGRID
 NEW DEFAULT: DIIS ACCELERATOR ACTIVE
 USE KEYWORD NODIIS TO TURN IT OFF
 *******************************************************************************

 INFORMATION **** GUESSP **** SCF GUESS FROM A PREVIOUS RUN DENSITY MATRIX
 INFORMATION **** TOLINTEG **** COULOMB AND EXCHANGE SERIES TOLERANCES MODIFIED
 INFORMATION **** MAXCYCLE **** MAX NUMBER OF SCF CYCLES SET TO         200
 INFORMATION **** DIIS **** DIIS FOR SCF ACTIVE
 INFORMATION **** DIIS **** LEVEL SHIFTER DISABLED
 *******************************************************************************
 N. OF ATOMS PER CELL         6  COULOMB OVERLAP TOL         (T1) 10**   -7
 NUMBER OF SHELLS            22  COULOMB PENETRATION TOL     (T2) 10**   -7
 NUMBER OF AO                38  EXCHANGE OVERLAP TOL        (T3) 10**   -7
 N. OF ELECTRONS PER CELL    56  EXCHANGE PSEUDO OVP (F(G))  (T4) 10**   -7
 CORE ELECTRONS PER CELL     28  EXCHANGE PSEUDO OVP (P(G))  (T5) 10**  -14
 N. OF SYMMETRY OPERATORS     8  POLE ORDER IN MONO ZONE                  4
 *******************************************************************************
 TYPE OF CALCULATION :  RESTRICTED CLOSED SHELL
 KOHN-SHAM HAMILTONIAN

 (EXCHANGE)[CORRELATION] FUNCTIONAL:(BECKE 88)[LEE-YANG-PARR]

 NON-LOCAL WEIGHTING FACTOR (EXCHANGE) =           0.9000
 NON-LOCAL WEIGHTING FACTOR [CORRELATION] =        0.8100

 HYBRID EXCHANGE - PERCENTAGE OF FOCK EXCHANGE    20.0000

 CAPPA:IS1 12;IS2 12;IS3  1; K PTS MONK NET  28; SYMMOPS:K SPACE  16;G SPACE   8

 *******************************************************************************
 MAX NUMBER OF SCF CYCLES     200  CONVERGENCE ON DELTAP        10**-16
 WEIGHT OF F(I) IN F(I+1)      70% CONVERGENCE ON ENERGY        10**- 6
 SHRINK. FACT.(MONKH.)   12 12  1  NUMBER OF K POINTS IN THE IBZ     28
 SHRINKING FACTOR(GILAT NET)   24  NUMBER OF K POINTS(GILAT NET)     91
 *******************************************************************************
 *** K POINTS COORDINATES (OBLIQUE COORDINATES IN UNITS OF IS = 12)
   1-R(  0  0  0)   2-C(  1  0  0)   3-C(  2  0  0)   4-C(  3  0  0)
   5-C(  4  0  0)   6-C(  5  0  0)   7-R(  6  0  0)   8-C(  1  1  0)
   9-C(  2  1  0)  10-C(  3  1  0)  11-C(  4  1  0)  12-C(  5  1  0)
  13-C(  6  1  0)  14-C(  2  2  0)  15-C(  3  2  0)  16-C(  4  2  0)
  17-C(  5  2  0)  18-C(  6  2  0)  19-C(  3  3  0)  20-C(  4  3  0)
  21-C(  5  3  0)  22-C(  6  3  0)  23-C(  4  4  0)  24-C(  5  4  0)
  25-C(  6  4  0)  26-C(  5  5  0)  27-C(  6  5  0)  28-R(  6  6  0)

 DIRECT LATTICE VECTORS COMPON. (A.U.)     RECIP. LATTICE VECTORS COMPON. (A.U.) 
        X            Y            Z              X            Y            Z
    5.6876764    0.0000000    0.0000000      1.1047016    0.0000000    0.0000000
   -0.0000000    5.6876764    0.0000000      0.0000000    1.1047016    0.0000000
    0.0000000    0.0000000  944.8630670      0.0000000    0.0000000    0.0066498

 DISK SPACE FOR EIGENVECTORS (FTN 10)       76532 REALS

 SYMMETRY ADAPTION OF THE BLOCH FUNCTIONS ENABLED
 TTTTTTTTTTTTTTTTTTTTTTTTTTTTTT gordsh1     TELAPSE        0.06 TCPU        0.02

 MATRIX SIZE: P(G)   21446, F(G)    4750, P(G) IRR    1978, F(G) IRR     973
 MAX G-VECTOR INDEX FOR 1- AND 2-ELECTRON INTEGRALS  61

 TTTTTTTTTTTTTTTTTTTTTTTTTTTTTT INPUT       TELAPSE        0.06 TCPU        0.02

 NEIGHBORS OF THE NON-EQUIVALENT ATOMS

 N = NUMBER OF NEIGHBORS AT DISTANCE R
    ATOM  N     R/ANG      R/AU   NEIGHBORS (ATOM LABELS AND CELL INDICES)
   1 MG   1     2.0000     3.7795    6 O    0 0 0
   1 MG   1     2.1282     4.0218    3 O    0 0 0
   1 MG   4     2.1282     4.0218    4 O    0 0 0    4 O   -1 0 0    4 O    0 1 0
                                     4 O   -1 1 0
   1 MG   4     3.0098     5.6877    2 MG   0 0 0    2 MG  -1 0 0    2 MG   0 1 0
                                     2 MG  -1 1 0
   1 MG   4     3.0098     5.6877    1 MG  -1 0 0    1 MG   1 0 0    1 MG   0-1 0
                                     1 MG   0 1 0
   1 MG   4     3.6137     6.8289    6 O   -1 0 0    6 O    1 0 0    6 O    0-1 0
                                     6 O    0 1 0

   3 O    1     2.1282     4.0218    1 MG   0 0 0
   3 O    4     2.1282     4.0218    2 MG   0 0 0    2 MG  -1 0 0    2 MG   0 1 0
                                     2 MG  -1 1 0
   3 O    4     2.9205     5.5190    5 O    0 0 0    5 O   -1 0 0    5 O    0 1 0
                                     5 O   -1 1 0
   3 O    4     3.0098     5.6877    4 O    0 0 0    4 O   -1 0 0    4 O    0 1 0
                                     4 O   -1 1 0
   3 O    4     3.0098     5.6877    3 O   -1 0 0    3 O    1 0 0    3 O    0-1 0
                                     3 O    0 1 0
   3 O    4     3.6862     6.9660    1 MG  -1 0 0    1 MG   1 0 0    1 MG   0-1 0
                                     1 MG   0 1 0

   5 O    1     2.0000     3.7795    2 MG   0 0 0
   5 O    4     2.9205     5.5190    3 O    0 0 0    3 O    1 0 0    3 O    0-1 0
                                     3 O    1-1 0
   5 O    4     3.0098     5.6877    5 O   -1 0 0    5 O    1 0 0    5 O    0-1 0
                                     5 O    0 1 0
   5 O    4     3.6137     6.8289    2 MG  -1 0 0    2 MG   1 0 0    2 MG   0-1 0
                                     2 MG   0 1 0
   5 O    1     4.1282     7.8012    4 O    0 0 0
   5 O    4     4.2565     8.0436    5 O   -1-1 0    5 O    1 1 0    5 O   -1 1 0
                                     5 O    1-1 0


 SYMMETRY ALLOWED INTERNAL DEGREE(S) OF FREEDOM:   3
 TTTTTTTTTTTTTTTTTTTTTTTTTTTTTT SYMM        TELAPSE        0.06 TCPU        0.02
 TTTTTTTTTTTTTTTTTTTTTTTTTTTTTT INT_SCREEN  TELAPSE        0.06 TCPU        0.02
 INFORMATION **** EXCBUF **** EXCH. BIPO BUFFER: WORDS USED =      101763

 DFT PARAMETERS

     ATOM       ELECTRONS   NET CHARGE   R(ANGSTROM)
   1  12  MG     12.0000      0.0000     1.60000000
   3   8  O       8.0000      0.0000     0.74000000

 SIZE OF GRID=      41394
 TTTTTTTTTTTTTTTTTTTTTTTTTTTTTT MAKE_GRID2  TELAPSE        0.62 TCPU        0.57
 BECKE WEIGHT FUNCTION
 RADSAFE =     2.00
 TOLERANCES - DENSITY:10**- 6; POTENTIAL:10**- 9; GRID WGT:10**-14

 RADIAL INTEGRATION  - INTERVALS (POINTS,UPPER LIMIT):            1( 99,  4.0*R)

 ANGULAR INTEGRATION - INTERVALS (ACCURACY LEVEL [N. POINTS] UPPER LIMIT):
  1(  6[ 146]   0.2)  2( 11[ 302]   0.5)  3( 14[ 590]   0.9)  4( 18[1454]   3.5)
  5( 14[ 590]9999.0)
 EEEEEEEEEE INT_CALC TERMINATION  DATE 03 02 2022 TIME 16:44:27.1

 *******************************************************************************
 Adsorption tests                                                                
 CRYSTAL - SCF - TYPE OF CALCULATION :  RESTRICTED CLOSED SHELL
 *******************************************************************************

 CAPPA:IS1 12;IS2 12;IS3  1; K PTS MONK NET  28; SYMMOPS:K SPACE  16;G SPACE   8

 TTTTTTTTTTTTTTTTTTTTTTTTTTTTTT SDIK        TELAPSE        0.63 TCPU        0.58

 INFORMATION FROM INTEGRAL EVALUATION

 RESTART FROM A PREVIOUS DENSITY MATRIX - DEP ACTIVE
 NUMBER OF COUPLE SETS (NEW, OLD, FOUND):     117     117     117
 NUMBER OF IRREDUCIBLE G VECTORS        :     548     548     548

 *******************************************************************************
 LOCAL ATOMIC FUNCTIONS BASIS SET
 *******************************************************************************
   ATOM   X(AU)   Y(AU)   Z(AU)  N. TYPE  EXPONENT  S COEF   P COEF   D/F/G COEF
 *******************************************************************************
   1 MG  -0.000   2.844   2.011
                                  1 S  
                                         2.992E+02 1.925E+01 0.000E+00 0.000E+00
                                         5.451E+01 1.861E+01 0.000E+00 0.000E+00
                                         1.475E+01 5.801E+00 0.000E+00 0.000E+00
                                  2 S  
                                         1.512E+01-1.329E+00 0.000E+00 0.000E+00
                                         3.514E+00 1.777E+00 0.000E+00 0.000E+00
                                         1.143E+00 1.341E+00 0.000E+00 0.000E+00
                                  3 S  
                                         1.395E+00-4.888E-01 0.000E+00 0.000E+00
                                         3.893E-01 1.927E-01 0.000E+00 0.000E+00
                                         1.524E-01 3.806E-01 0.000E+00 0.000E+00
                           4-     6 P  
                                         1.512E+01 0.000E+00 1.612E+01 0.000E+00
                                         3.514E+00 0.000E+00 1.014E+01 0.000E+00
                                         1.143E+00 0.000E+00 1.606E+00 0.000E+00
                           7-     9 P  
                                         1.395E+00 0.000E+00 5.567E-02 0.000E+00
                                         3.893E-01 0.000E+00 6.345E-01 0.000E+00
                                         1.524E-01 0.000E+00 1.525E-01 0.000E+00
   2 MG   2.844   0.000  -2.011
   3 O   -0.000   2.844  -2.011
                                 19 S  
                                         1.307E+02 1.034E+01 0.000E+00 0.000E+00
                                         2.381E+01 1.000E+01 0.000E+00 0.000E+00
                                         6.444E+00 3.117E+00 0.000E+00 0.000E+00
                                 20 S  
                                         5.033E+00-5.823E-01 0.000E+00 0.000E+00
                                         1.170E+00 7.788E-01 0.000E+00 0.000E+00
                                         3.804E-01 5.878E-01 0.000E+00 0.000E+00
                          21-    23 P  
                                         5.033E+00 0.000E+00 4.075E+00 0.000E+00
                                         1.170E+00 0.000E+00 2.562E+00 0.000E+00
                                         3.804E-01 0.000E+00 4.059E-01 0.000E+00
   4 O    2.844   0.000   2.011
   5 O    2.844   0.000  -5.790
   6 O   -0.000   2.844   5.790
 CHARGE NORMALIZATION FACTOR 126.62078309
 TOTAL ATOMIC CHARGES:
  17.1576175  17.1576175   0.0963533   0.0963533  10.7460292  10.7460292
 TTTTTTTTTTTTTTTTTTTTTTTTTTTTTT MOQGAD      TELAPSE        0.64 TCPU        0.59
 TTTTTTTTTTTTTTTTTTTTTTTTTTTTTT SHELLXN     TELAPSE        3.75 TCPU        3.68
 TTTTTTTTTTTTTTTTTTTTTTTTTTTTTT MONMO3      TELAPSE        3.78 TCPU        3.71
 NUMERICALLY INTEGRATED DENSITY     56.0000630593
 TTTTTTTTTTTTTTTTTTTTTTTTTTTTTT NUMDFT      TELAPSE        4.34 TCPU        4.26
 CYC   0 ETOT(AU) -1.886577515722E+02 DETOT -1.89E+02 tst  0.00E+00 PX  1.00E+00
 TTTTTTTTTTTTTTTTTTTTTTTTTTTTTT DIIS        TELAPSE        4.35 TCPU        4.27
 TTTTTTTTTTTTTTTTTTTTTTTTTTTTTT FDIK        TELAPSE        4.36 TCPU        4.28
 INSULATING STATE
 TOP OF VALENCE BANDS -    BAND     28; K   28; EIG -5.0221828E+00 AU
 TOP OF VALENCE BANDS -    BAND     28; K    1; EIG -5.0706819E+00 AU
 BOTTOM OF VIRTUAL BANDS - BAND     29; K    1; EIG -1.8061891E+00 AU
 INDIRECT ENERGY BAND GAP:  87.5117 eV
 TTTTTTTTTTTTTTTTTTTTTTTTTTTTTT PDIG        TELAPSE        4.37 TCPU        4.28
 CHARGE NORMALIZATION FACTOR   1.00000000
 TOTAL ATOMIC CHARGES:
  15.9696301  15.9696301  10.0230827  10.0230827   2.0072872   2.0072872
 TTTTTTTTTTTTTTTTTTTTTTTTTTTTTT MOQGAD      TELAPSE        4.37 TCPU        4.29
 TTTTTTTTTTTTTTTTTTTTTTTTTTTTTT SHELLXN     TELAPSE        7.56 TCPU        7.43
 TTTTTTTTTTTTTTTTTTTTTTTTTTTTTT MONMO3      TELAPSE        7.58 TCPU        7.45
 NUMERICALLY INTEGRATED DENSITY     55.9999986631
 TTTTTTTTTTTTTTTTTTTTTTTTTTTTTT NUMDFT      TELAPSE        8.15 TCPU        8.01
 CYC   1 ETOT(AU) -6.264106995293E+02 DETOT -4.38E+02 tst  0.00E+00 PX  3.08E+01
 TTTTTTTTTTTTTTTTTTTTTTTTTTTTTT DIIS        TELAPSE        8.15 TCPU        8.01
 DIIS TEST: 0.78568E+01 AT SCF   CYCLE   1 - MIX   70 %
 TTTTTTTTTTTTTTTTTTTTTTTTTTTTTT FDIK        TELAPSE        8.16 TCPU        8.02
 INSULATING STATE
 TOP OF VALENCE BANDS -    BAND     28; K    1; EIG -1.0837974E+00 AU
 BOTTOM OF VIRTUAL BANDS - BAND     29; K    1; EIG  2.9447867E-01 AU
 DIRECT ENERGY BAND GAP:  37.5048 eV
 TTTTTTTTTTTTTTTTTTTTTTTTTTTTTT PDIG        TELAPSE        8.16 TCPU        8.03
 CHARGE NORMALIZATION FACTOR   1.00000000
 TOTAL ATOMIC CHARGES:
  15.9634709  15.9634709  10.0170212  10.0170212   2.0195079   2.0195079
 TTTTTTTTTTTTTTTTTTTTTTTTTTTTTT MOQGAD      TELAPSE        8.17 TCPU        8.03
 TTTTTTTTTTTTTTTTTTTTTTTTTTTTTT SHELLXN     TELAPSE       11.26 TCPU       11.12
 TTTTTTTTTTTTTTTTTTTTTTTTTTTTTT MONMO3      TELAPSE       11.29 TCPU       11.14
 NUMERICALLY INTEGRATED DENSITY     55.9999986801
 TTTTTTTTTTTTTTTTTTTTTTTTTTTTTT NUMDFT      TELAPSE       11.84 TCPU       11.69
 CYC   2 ETOT(AU) -6.268126297700E+02 DETOT -4.02E-01 tst  5.54E-03 PX  6.88E-02
 TTTTTTTTTTTTTTTTTTTTTTTTTTTTTT DIIS        TELAPSE       11.84 TCPU       11.69
 DIIS TEST: 0.10649E+02 AT SCF   CYCLE   2 - DIIS ACTIVE - HISTORY:     2 CYCLES
 TTTTTTTTTTTTTTTTTTTTTTTTTTTTTT FDIK        TELAPSE       11.85 TCPU       11.70
 POSSIBLY CONDUCTING STATE - EFERMI(AU)  8.2183002E+00 (RES. CHARGE  1.71E-10;IT. 10)
 TTTTTTTTTTTTTTTTTTTTTTTTTTTTTT PDIG        TELAPSE       11.86 TCPU       11.71
 CHARGE NORMALIZATION FACTOR   1.00000000
 TOTAL ATOMIC CHARGES:
  13.3691380  13.3691380   4.6262582   4.6262582  10.0046037  10.0046037
 TTTTTTTTTTTTTTTTTTTTTTTTTTTTTT MOQGAD      TELAPSE       11.87 TCPU       11.72
 TTTTTTTTTTTTTTTTTTTTTTTTTTTTTT SHELLXN     TELAPSE       14.95 TCPU       14.79
 TTTTTTTTTTTTTTTTTTTTTTTTTTTTTT MONMO3      TELAPSE       14.97 TCPU       14.81
 NUMERICALLY INTEGRATED DENSITY     55.9999974982
 TTTTTTTTTTTTTTTTTTTTTTTTTTTTTT NUMDFT      TELAPSE       15.53 TCPU       15.37
 CYC   3 ETOT(AU) -6.732919058464E+02 DETOT -4.65E+01 tst  1.87E-01 PX  2.90E+00
 TTTTTTTTTTTTTTTTTTTTTTTTTTTTTT DIIS        TELAPSE       15.53 TCPU       15.37
 DIIS TEST: 0.56434E+01 AT SCF   CYCLE   3 - DIIS ACTIVE - HISTORY:     3 CYCLES
 TTTTTTTTTTTTTTTTTTTTTTTTTTTTTT FDIK        TELAPSE       15.53 TCPU       15.37
 POSSIBLY CONDUCTING STATE - EFERMI(AU)  1.6922524E+00 (RES. CHARGE  1.01E-10;IT. 10)
 TTTTTTTTTTTTTTTTTTTTTTTTTTTTTT PDIG        TELAPSE       15.54 TCPU       15.38
 CHARGE NORMALIZATION FACTOR   1.00000000
 TOTAL ATOMIC CHARGES:
  10.3278217  10.3278217   7.6357268   7.6357268  10.0364515  10.0364515
 TTTTTTTTTTTTTTTTTTTTTTTTTTTTTT MOQGAD      TELAPSE       15.55 TCPU       15.39
 TTTTTTTTTTTTTTTTTTTTTTTTTTTTTT SHELLXN     TELAPSE       18.63 TCPU       18.46
 TTTTTTTTTTTTTTTTTTTTTTTTTTTTTT MONMO3      TELAPSE       18.65 TCPU       18.49
 NUMERICALLY INTEGRATED DENSITY     55.9999962705
 TTTTTTTTTTTTTTTTTTTTTTTTTTTTTT NUMDFT      TELAPSE       19.21 TCPU       19.04
 CYC   4 ETOT(AU) -6.854480233325E+02 DETOT -1.22E+01 tst  1.11E+01 PX  1.33E+00
 TTTTTTTTTTTTTTTTTTTTTTTTTTTTTT DIIS        TELAPSE       19.21 TCPU       19.04
 DIIS TEST: 0.23113E+01 AT SCF   CYCLE   4 - DIIS ACTIVE - HISTORY:     4 CYCLES
 TTTTTTTTTTTTTTTTTTTTTTTTTTTTTT FDIK        TELAPSE       19.22 TCPU       19.05
 POSSIBLY CONDUCTING STATE - EFERMI(AU)  6.1054764E-02 (RES. CHARGE  2.98E-13;IT. 10)
 TTTTTTTTTTTTTTTTTTTTTTTTTTTTTT PDIG        TELAPSE       19.22 TCPU       19.05
 CHARGE NORMALIZATION FACTOR   1.00000000
 TOTAL ATOMIC CHARGES:
  10.7297969  10.7297969   7.3873269   7.3873269   9.8828762   9.8828762
 TTTTTTTTTTTTTTTTTTTTTTTTTTTTTT MOQGAD      TELAPSE       19.23 TCPU       19.06
 TTTTTTTTTTTTTTTTTTTTTTTTTTTTTT SHELLXN     TELAPSE       22.33 TCPU       22.15
 TTTTTTTTTTTTTTTTTTTTTTTTTTTTTT MONMO3      TELAPSE       22.35 TCPU       22.17
 NUMERICALLY INTEGRATED DENSITY     55.9999970341
 TTTTTTTTTTTTTTTTTTTTTTTTTTTTTT NUMDFT      TELAPSE       22.90 TCPU       22.72
 CYC   5 ETOT(AU) -6.869970096801E+02 DETOT -1.55E+00 tst  2.70E-02 PX  3.52E-01
 TTTTTTTTTTTTTTTTTTTTTTTTTTTTTT DIIS        TELAPSE       22.90 TCPU       22.73
 DIIS TEST: 0.94425E+00 AT SCF   CYCLE   5 - DIIS ACTIVE - HISTORY:     5 CYCLES
 TTTTTTTTTTTTTTTTTTTTTTTTTTTTTT FDIK        TELAPSE       22.91 TCPU       22.73
 POSSIBLY CONDUCTING STATE - EFERMI(AU) -1.7398002E-01 (RES. CHARGE  4.48E-11;IT. 10)
 TTTTTTTTTTTTTTTTTTTTTTTTTTTTTT PDIG        TELAPSE       22.92 TCPU       22.74
 CHARGE NORMALIZATION FACTOR   1.00000000
 TOTAL ATOMIC CHARGES:
  13.5394343  13.5394343   9.8213453   9.8213453   4.6392204   4.6392204
 TTTTTTTTTTTTTTTTTTTTTTTTTTTTTT MOQGAD      TELAPSE       22.92 TCPU       22.75
 TTTTTTTTTTTTTTTTTTTTTTTTTTTTTT SHELLXN     TELAPSE       26.01 TCPU       25.82
 TTTTTTTTTTTTTTTTTTTTTTTTTTTTTT MONMO3      TELAPSE       26.03 TCPU       25.85
 NUMERICALLY INTEGRATED DENSITY     55.9999992463
 TTTTTTTTTTTTTTTTTTTTTTTTTTTTTT NUMDFT      TELAPSE       26.59 TCPU       26.40
 CYC   6 ETOT(AU) -6.723306593128E+02 DETOT  1.47E+01 tst  2.83E+00 PX  2.23E+00
 TTTTTTTTTTTTTTTTTTTTTTTTTTTTTT DIIS        TELAPSE       26.59 TCPU       26.40
 DIIS TEST: 0.22446E+02 AT SCF   CYCLE   6 - DIIS ACTIVE - HISTORY:     6 CYCLES
 TTTTTTTTTTTTTTTTTTTTTTTTTTTTTT FDIK        TELAPSE       26.60 TCPU       26.41
 POSSIBLY CONDUCTING STATE - EFERMI(AU) -2.7145361E-01 (RES. CHARGE  1.96E-11;IT. 10)
 TTTTTTTTTTTTTTTTTTTTTTTTTTTTTT PDIG        TELAPSE       26.60 TCPU       26.41
 CHARGE NORMALIZATION FACTOR   1.00000000
 TOTAL ATOMIC CHARGES:
  14.0373697  14.0373697   9.8507331   9.8507331   4.1118972   4.1118972
 TTTTTTTTTTTTTTTTTTTTTTTTTTTTTT MOQGAD      TELAPSE       26.61 TCPU       26.42
 TTTTTTTTTTTTTTTTTTTTTTTTTTTTTT SHELLXN     TELAPSE       29.70 TCPU       29.50
 TTTTTTTTTTTTTTTTTTTTTTTTTTTTTT MONMO3      TELAPSE       29.73 TCPU       29.53
 NUMERICALLY INTEGRATED DENSITY     55.9999990145
 TTTTTTTTTTTTTTTTTTTTTTTTTTTTTT NUMDFT      TELAPSE       30.28 TCPU       30.08
 CYC   7 ETOT(AU) -6.655710407048E+02 DETOT  6.76E+00 tst  8.30E-02 PX  2.93E-01
 TTTTTTTTTTTTTTTTTTTTTTTTTTTTTT DIIS        TELAPSE       30.29 TCPU       30.09
 DIIS TEST: 0.42660E+02 AT SCF   CYCLE   7 - DIIS ACTIVE - HISTORY:     7 CYCLES
 TTTTTTTTTTTTTTTTTTTTTTTTTTTTTT FDIK        TELAPSE       30.29 TCPU       30.09
 POSSIBLY CONDUCTING STATE - EFERMI(AU) -1.5053955E-01 (RES. CHARGE  1.87E-07;IT. 57)
 TTTTTTTTTTTTTTTTTTTTTTTTTTTTTT PDIG        TELAPSE       30.30 TCPU       30.10
 CHARGE NORMALIZATION FACTOR   0.99999999
 TOTAL ATOMIC CHARGES:
  13.0879914  13.0879914   9.7055930   9.7055930   5.2064156   5.2064156
 TTTTTTTTTTTTTTTTTTTTTTTTTTTTTT MOQGAD      TELAPSE       30.31 TCPU       30.11
 TTTTTTTTTTTTTTTTTTTTTTTTTTTTTT SHELLXN     TELAPSE       33.40 TCPU       33.19
 TTTTTTTTTTTTTTTTTTTTTTTTTTTTTT MONMO3      TELAPSE       33.43 TCPU       33.21
 NUMERICALLY INTEGRATED DENSITY     55.9999995176
 TTTTTTTTTTTTTTTTTTTTTTTTTTTTTT NUMDFT      TELAPSE       33.98 TCPU       33.76
 CYC   8 ETOT(AU) -6.780690413020E+02 DETOT -1.25E+01 tst  1.24E+00 PX  6.35E-01
 TTTTTTTTTTTTTTTTTTTTTTTTTTTTTT DIIS        TELAPSE       33.98 TCPU       33.77
 DIIS TEST: 0.79148E+01 AT SCF   CYCLE   8 - DIIS ACTIVE - HISTORY:     8 CYCLES
 TTTTTTTTTTTTTTTTTTTTTTTTTTTTTT FDIK        TELAPSE       33.99 TCPU       33.77
 POSSIBLY CONDUCTING STATE - EFERMI(AU) -1.3560010E-01 (RES. CHARGE  8.56E-10;IT. 18)
 TTTTTTTTTTTTTTTTTTTTTTTTTTTTTT PDIG        TELAPSE       33.99 TCPU       33.78
 CHARGE NORMALIZATION FACTOR   1.00000000
 TOTAL ATOMIC CHARGES:
  12.6357679  12.6357679   9.6323637   9.6323637   5.7318685   5.7318685
 TTTTTTTTTTTTTTTTTTTTTTTTTTTTTT MOQGAD      TELAPSE       34.00 TCPU       33.79
 TTTTTTTTTTTTTTTTTTTTTTTTTTTTTT SHELLXN     TELAPSE       37.07 TCPU       36.85
 TTTTTTTTTTTTTTTTTTTTTTTTTTTTTT MONMO3      TELAPSE       37.10 TCPU       36.87
 NUMERICALLY INTEGRATED DENSITY     55.9999998441
 TTTTTTTTTTTTTTTTTTTTTTTTTTTTTT NUMDFT      TELAPSE       37.66 TCPU       37.43
 CYC   9 ETOT(AU) -6.824726522472E+02 DETOT -4.40E+00 tst  1.55E-02 PX  4.24E-01
 TTTTTTTTTTTTTTTTTTTTTTTTTTTTTT DIIS        TELAPSE       37.66 TCPU       37.44
 DIIS TEST: 0.57968E+01 AT SCF   CYCLE   9 - DIIS ACTIVE - HISTORY:     9 CYCLES
 TTTTTTTTTTTTTTTTTTTTTTTTTTTTTT FDIK        TELAPSE       37.67 TCPU       37.44
 POSSIBLY CONDUCTING STATE - EFERMI(AU) -1.5934819E-01 (RES. CHARGE  2.84E-14;IT. 18)
 TTTTTTTTTTTTTTTTTTTTTTTTTTTTTT PDIG        TELAPSE       37.68 TCPU       37.45
 CHARGE NORMALIZATION FACTOR   1.00000000
 TOTAL ATOMIC CHARGES:
  13.0288283  13.0288283   9.6389091   9.6389091   5.3322627   5.3322627
 TTTTTTTTTTTTTTTTTTTTTTTTTTTTTT MOQGAD      TELAPSE       37.68 TCPU       37.46
 TTTTTTTTTTTTTTTTTTTTTTTTTTTTTT SHELLXN     TELAPSE       40.76 TCPU       40.53
 TTTTTTTTTTTTTTTTTTTTTTTTTTTTTT MONMO3      TELAPSE       40.78 TCPU       40.55
 NUMERICALLY INTEGRATED DENSITY     55.9999996536
 TTTTTTTTTTTTTTTTTTTTTTTTTTTTTT NUMDFT      TELAPSE       41.33 TCPU       41.10
 CYC  10 ETOT(AU) -6.792465609264E+02 DETOT  3.23E+00 tst  1.53E-02 PX  3.32E-01
 TTTTTTTTTTTTTTTTTTTTTTTTTTTTTT DIIS        TELAPSE       41.33 TCPU       41.10
 DIIS TEST: 0.73861E+01 AT SCF   CYCLE  10 - DIIS ACTIVE - HISTORY:    10 CYCLES
 TTTTTTTTTTTTTTTTTTTTTTTTTTTTTT FDIK        TELAPSE       41.34 TCPU       41.11
 POSSIBLY CONDUCTING STATE - EFERMI(AU) -1.6506595E-01 (RES. CHARGE  3.52E-10;IT. 20)
 TTTTTTTTTTTTTTTTTTTTTTTTTTTTTT PDIG        TELAPSE       41.35 TCPU       41.11
 CHARGE NORMALIZATION FACTOR   1.00000000
 TOTAL ATOMIC CHARGES:
  13.1135129  13.1135129   9.6617350   9.6617350   5.2247521   5.2247521
 TTTTTTTTTTTTTTTTTTTTTTTTTTTTTT MOQGAD      TELAPSE       41.35 TCPU       41.12
 TTTTTTTTTTTTTTTTTTTTTTTTTTTTTT SHELLXN     TELAPSE       44.43 TCPU       44.19
 TTTTTTTTTTTTTTTTTTTTTTTTTTTTTT MONMO3      TELAPSE       44.45 TCPU       44.21
 NUMERICALLY INTEGRATED DENSITY     55.9999995996
 TTTTTTTTTTTTTTTTTTTTTTTTTTTTTT NUMDFT      TELAPSE       45.00 TCPU       44.76
 CYC  11 ETOT(AU) -6.782789100346E+02 DETOT  9.68E-01 tst  5.34E-04 PX  7.81E-02
 TTTTTTTTTTTTTTTTTTTTTTTTTTTTTT DIIS        TELAPSE       45.00 TCPU       44.76
 DIIS TEST: 0.77896E+01 AT SCF   CYCLE  11 - DIIS ACTIVE - HISTORY:    11 CYCLES
 TTTTTTTTTTTTTTTTTTTTTTTTTTTTTT FDIK        TELAPSE       45.01 TCPU       44.77
 POSSIBLY CONDUCTING STATE - EFERMI(AU) -1.5974817E-01 (RES. CHARGE  1.28E-10;IT.  8)
 TTTTTTTTTTTTTTTTTTTTTTTTTTTTTT PDIG        TELAPSE       45.02 TCPU       44.78
 CHARGE NORMALIZATION FACTOR   1.00000000
 TOTAL ATOMIC CHARGES:
  12.8495118  12.8495118   9.4945123   9.4945123   5.6559759   5.6559759
 TTTTTTTTTTTTTTTTTTTTTTTTTTTTTT MOQGAD      TELAPSE       45.02 TCPU       44.78
 TTTTTTTTTTTTTTTTTTTTTTTTTTTTTT SHELLXN     TELAPSE       48.09 TCPU       47.84
 TTTTTTTTTTTTTTTTTTTTTTTTTTTTTT MONMO3      TELAPSE       48.11 TCPU       47.87
 NUMERICALLY INTEGRATED DENSITY     55.9999999544
 TTTTTTTTTTTTTTTTTTTTTTTTTTTTTT NUMDFT      TELAPSE       48.66 TCPU       48.41
 CYC  12 ETOT(AU) -6.819754772081E+02 DETOT -3.70E+00 tst  1.46E-02 PX  2.71E-01
 TTTTTTTTTTTTTTTTTTTTTTTTTTTTTT DIIS        TELAPSE       48.66 TCPU       48.42
 DIIS TEST: 0.59839E+01 AT SCF   CYCLE  12 - DIIS ACTIVE - HISTORY:    12 CYCLES
 TTTTTTTTTTTTTTTTTTTTTTTTTTTTTT FDIK        TELAPSE       48.67 TCPU       48.42
 POSSIBLY CONDUCTING STATE - EFERMI(AU) -1.6480124E-01 (RES. CHARGE  5.45E-11;IT. 12)
 TTTTTTTTTTTTTTTTTTTTTTTTTTTTTT PDIG        TELAPSE       48.68 TCPU       48.43
 CHARGE NORMALIZATION FACTOR   1.00000000
 TOTAL ATOMIC CHARGES:
  12.8909538  12.8909538   9.5045448   9.5045448   5.6045014   5.6045014
 TTTTTTTTTTTTTTTTTTTTTTTTTTTTTT MOQGAD      TELAPSE       48.68 TCPU       48.44
 TTTTTTTTTTTTTTTTTTTTTTTTTTTTTT SHELLXN     TELAPSE       51.75 TCPU       51.50
 TTTTTTTTTTTTTTTTTTTTTTTTTTTTTT MONMO3      TELAPSE       51.77 TCPU       51.52
 NUMERICALLY INTEGRATED DENSITY     55.9999999346
 TTTTTTTTTTTTTTTTTTTTTTTTTTTTTT NUMDFT      TELAPSE       52.32 TCPU       52.07
 CYC  13 ETOT(AU) -6.815614096648E+02 DETOT  4.14E-01 tst  7.47E-04 PX  6.61E-02
 TTTTTTTTTTTTTTTTTTTTTTTTTTTTTT DIIS        TELAPSE       52.32 TCPU       52.07
 DIIS TEST: 0.61543E+01 AT SCF   CYCLE  13 - DIIS ACTIVE - HISTORY:    13 CYCLES
 TTTTTTTTTTTTTTTTTTTTTTTTTTTTTT FDIK        TELAPSE       52.33 TCPU       52.08
 POSSIBLY CONDUCTING STATE - EFERMI(AU) -1.6637149E-01 (RES. CHARGE  7.47E-12;IT. 10)
 TTTTTTTTTTTTTTTTTTTTTTTTTTTTTT PDIG        TELAPSE       52.34 TCPU       52.09
 CHARGE NORMALIZATION FACTOR   1.00000000
 TOTAL ATOMIC CHARGES:
  12.8689075  12.8689075   9.5091089   9.5091089   5.6219835   5.6219835
 TTTTTTTTTTTTTTTTTTTTTTTTTTTTTT MOQGAD      TELAPSE       52.34 TCPU       52.09
 TTTTTTTTTTTTTTTTTTTTTTTTTTTTTT SHELLXN     TELAPSE       55.42 TCPU       55.16
 TTTTTTTTTTTTTTTTTTTTTTTTTTTTTT MONMO3      TELAPSE       55.44 TCPU       55.19
 NUMERICALLY INTEGRATED DENSITY     55.9999999570
 TTTTTTTTTTTTTTTTTTTTTTTTTTTTTT NUMDFT      TELAPSE       56.00 TCPU       55.74
 CYC  14 ETOT(AU) -6.817165093039E+02 DETOT -1.55E-01 tst  4.40E-04 PX  4.75E-02
 TTTTTTTTTTTTTTTTTTTTTTTTTTTTTT DIIS        TELAPSE       56.00 TCPU       55.74
 DIIS TEST: 0.61235E+01 AT SCF   CYCLE  14 - DIIS ACTIVE - HISTORY:    14 CYCLES
 TTTTTTTTTTTTTTTTTTTTTTTTTTTTTT FDIK        TELAPSE       56.00 TCPU       55.74
 POSSIBLY CONDUCTING STATE - EFERMI(AU) -1.9045105E-01 (RES. CHARGE  5.04E-13;IT. 12)
 TTTTTTTTTTTTTTTTTTTTTTTTTTTTTT PDIG        TELAPSE       56.01 TCPU       55.75
 CHARGE NORMALIZATION FACTOR   1.00000000
 TOTAL ATOMIC CHARGES:
  13.2133667  13.2133667   9.5680002   9.5680002   5.2186331   5.2186331
 TTTTTTTTTTTTTTTTTTTTTTTTTTTTTT MOQGAD      TELAPSE       56.02 TCPU       55.76
 TTTTTTTTTTTTTTTTTTTTTTTTTTTTTT SHELLXN     TELAPSE       59.09 TCPU       58.82
 TTTTTTTTTTTTTTTTTTTTTTTTTTTTTT MONMO3      TELAPSE       59.11 TCPU       58.85
 NUMERICALLY INTEGRATED DENSITY     55.9999997288
 TTTTTTTTTTTTTTTTTTTTTTTTTTTTTT NUMDFT      TELAPSE       59.67 TCPU       59.40
 CYC  15 ETOT(AU) -6.781092760587E+02 DETOT  3.61E+00 tst  3.91E-02 PX  3.51E-01
 TTTTTTTTTTTTTTTTTTTTTTTTTTTTTT DIIS        TELAPSE       59.67 TCPU       59.40
 DIIS TEST: 0.76449E+01 AT SCF   CYCLE  15 - DIIS ACTIVE - HISTORY:    15 CYCLES
 TTTTTTTTTTTTTTTTTTTTTTTTTTTTTT FDIK        TELAPSE       59.67 TCPU       59.41
 POSSIBLY CONDUCTING STATE - EFERMI(AU) -1.9666503E-01 (RES. CHARGE  2.07E-12;IT. 14)
 TTTTTTTTTTTTTTTTTTTTTTTTTTTTTT PDIG        TELAPSE       59.68 TCPU       59.41
 CHARGE NORMALIZATION FACTOR   1.00000000
 TOTAL ATOMIC CHARGES:
  13.1830993  13.1830993   9.5767002   9.5767002   5.2402005   5.2402005
 TTTTTTTTTTTTTTTTTTTTTTTTTTTTTT MOQGAD      TELAPSE       59.69 TCPU       59.42
 TTTTTTTTTTTTTTTTTTTTTTTTTTTTTT SHELLXN     TELAPSE       62.75 TCPU       62.48
 TTTTTTTTTTTTTTTTTTTTTTTTTTTTTT MONMO3      TELAPSE       62.78 TCPU       62.51
 NUMERICALLY INTEGRATED DENSITY     55.9999997220
 TTTTTTTTTTTTTTTTTTTTTTTTTTTTTT NUMDFT      TELAPSE       63.34 TCPU       63.06
 CYC  16 ETOT(AU) -6.783438181461E+02 DETOT -2.35E-01 tst  3.34E-03 PX  1.01E-01
 TTTTTTTTTTTTTTTTTTTTTTTTTTTTTT DIIS        TELAPSE       63.34 TCPU       63.06
 DIIS TEST: 0.97468E+01 AT SCF   CYCLE  16 - DIIS ACTIVE - HISTORY:    16 CYCLES
 TTTTTTTTTTTTTTTTTTTTTTTTTTTTTT FDIK        TELAPSE       63.35 TCPU       63.07
 POSSIBLY CONDUCTING STATE - EFERMI(AU) -1.9611001E-01 (RES. CHARGE  7.79E-12;IT.  8)
 TTTTTTTTTTTTTTTTTTTTTTTTTTTTTT PDIG        TELAPSE       63.35 TCPU       63.07
 CHARGE NORMALIZATION FACTOR   1.00000000
 TOTAL ATOMIC CHARGES:
  13.1778742  13.1778742   9.5839376   9.5839376   5.2381881   5.2381881
 TTTTTTTTTTTTTTTTTTTTTTTTTTTTTT MOQGAD      TELAPSE       63.36 TCPU       63.08
 TTTTTTTTTTTTTTTTTTTTTTTTTTTTTT SHELLXN     TELAPSE       66.43 TCPU       66.14
 TTTTTTTTTTTTTTTTTTTTTTTTTTTTTT MONMO3      TELAPSE       66.45 TCPU       66.17
 NUMERICALLY INTEGRATED DENSITY     55.9999997233
 TTTTTTTTTTTTTTTTTTTTTTTTTTTTTT NUMDFT      TELAPSE       67.00 TCPU       66.72
 CYC  17 ETOT(AU) -6.783380619109E+02 DETOT  5.76E-03 tst  1.09E-04 PX  1.31E-02
 TTTTTTTTTTTTTTTTTTTTTTTTTTTTTT DIIS        TELAPSE       67.01 TCPU       66.72
 DIIS TEST: 0.71261E+01 AT SCF   CYCLE  17 - DIIS ACTIVE - HISTORY:    17 CYCLES
 TTTTTTTTTTTTTTTTTTTTTTTTTTTTTT FDIK        TELAPSE       67.01 TCPU       66.73
 POSSIBLY CONDUCTING STATE - EFERMI(AU) -1.5091277E-01 (RES. CHARGE  7.11E-10;IT. 10)
 TTTTTTTTTTTTTTTTTTTTTTTTTTTTTT PDIG        TELAPSE       67.02 TCPU       66.73
 CHARGE NORMALIZATION FACTOR   1.00000000
 TOTAL ATOMIC CHARGES:
  12.4912378  12.4912378   9.4288602   9.4288602   6.0799019   6.0799019
 TTTTTTTTTTTTTTTTTTTTTTTTTTTTTT MOQGAD      TELAPSE       67.03 TCPU       66.74
