date Tue 1 Feb 2022 14:07:17 GMT
hostname MacBook-Pro-3.local
system Darwin MacBook-Pro-3.local 20.6.0 Darwin Kernel Version 20.6.0: Wed Nov 10 22:23:05 PST 2021; root:xnu-7195.141.14~1/RELEASE_ARM64_T8101 arm64
user brunocamino
output data in /Users/brunocamino/Desktop/Imperial/crystal-code-tools/CRYSTALpy/examples/data/density/system.out
crystal executable in /Users/brunocamino/crystal
input data in /Users/brunocamino/Desktop/Imperial/crystal-code-tools/CRYSTALpy/examples/data/density/system.d12
temporary directory /Users/brunocamino/crystal/tmp
external geometry input from /Users/brunocamino/Desktop/Imperial/crystal-code-tools/CRYSTALpy/examples/data/density/system.gui
external geometry input saved in /Users/brunocamino/Desktop/Imperial/crystal-code-tools/CRYSTALpy/examples/data/density/system_inp.gui
Adsorption tests
EXTERNAL
EXTPRT
BASISSET
STO-3G
DFT
B3LYP
XXLGRID
ENDDFT
TOLINTEG
7 7 7 7 14
SHRINK
12 24
MAXCYCLE
200
FMIXING
70
DIIS
ENDSCF

         
 *******************************************************************************
 *                                                                             *
 *                               CRYSTAL17                                     *
 *                      public : 1.0.2 - March 1st, 2018                       *
 *                       HTTP://WWW.CRYSTAL.UNITO.IT                           *
 *                                                                             *
 *                              MAIN AUTHORS                                   *
 *                                                                             *
 *  R. DOVESI(1,11), V.R. SAUNDERS(2), C. ROETTI(1,11), R. ORLANDO(1,11),      *
 *  C.M. ZICOVICH-WILSON(1,3), F. PASCALE(4), B. CIVALLERI(1,11),              *
 *  K. DOLL(5), N.M. HARRISON(2,6), I.J. BUSH(7), Ph. D'ARCO(8),               *
 *  M. LLUNELL(9), M. CAUSA'(10), Y. NOEL(8), L. MASCHIO(1,11), A. ERBA(1,11)  *
 *  M. RE'RAT(14), S. CASASSA(1,11)                                            *
 *                                                                             *
 *        CONTRIBUTIONS TO THE CODE HAVE ALSO BEEN GIVEN BY                    *
 *                                                                             *
 *  M. FERRABONE(1,11), M. DE LA PIERRE(1,11), M. FERRERO(1,11),               *
 *  J. BAIMA(1,11), E. ALBANESE(1,11), M.F. PEINTINGER(12), R. BAST(13),       *
 *  B. KIRTMAN(15), V. LACIVITA(1,11), R. DEMICHELIS(1,16)                     *
 *  G. BRANDEBURG(17), S. SALUSTRO(1,11), G. SANSONE(1,11)                     *
 *  M.T. RUGGIERO(18)                                                          *
 *                                                                             *
 * (1) THEORETICAL CHEMISTRY GROUP - UNIVERSITA' DI TORINO - TORINO (ITALY)    *
 * (2) COMPUTATIONAL SCIENCE & ENGINEERING DEPARTMENT - STFC DARESBURY (UK)    *
 * (3) UNIVERSIDAD AUTONOMA DEL ESTADO DE MORELOS - CUERNAVACA (MEXICO)        *
 * (4) UNIVERSITE' DE LORRAINE - NANCY (FRANCE)                                *
 * (5) UNIVERSITAET STUTTGART- STUTTGART (GERMANY)                             *
 * (6) IMPERIAL COLLEGE - LONDON (UK)                                          *
 * (7) OXFORD E-RESEARCH CENTRE - OXFORD (UK)                                  *
 * (8) UPMC - SORBONNE UNIVERSITES - PARIS (FRANCE)                            *
 * (9) UNIVERSIDAD DE BARCELONA - BARCELONA (SPAIN)                            *
 *(10) UNIVERSITA' DI NAPOLI "FEDERICO II" - NAPOLI (ITALY)                    *
 *(11) NIS - NANOSTRUCTURED INTERFACES AND SURFACES - TORINO (ITALY)           *
 *(12) MPI FUER CHEMISCHE ENERGIEKONVERSION - MUELHEIM AN DER RUHR (GERMANY)   *
 *(13) UNIVERSITY OF TROMSO - TROMSO (NORWAY)                                  *
 *(14) UNIVERSITE' DE PAU ET DES PAYS DE L'ADOUR - PAU (FRANCE)                *
 *(15) UNIVERSITY OF CALIFORNIA SANTA BARBARA - SANTA BARBARA (USA)            *
 *(16) CURTIN UNIVERSITY - PERTH (AUSTRALIA)                                   *
 *(17) UNIVERSITY COLLEGE LONDON - LONDON (UK)                                 *
 *(18) CAMBRIDGE UNIVERSITY - CAMBRIDGE (UK)                                   *
 *                                                                             *
 *******************************************************************************
 EEEEEEEEEE STARTING  DATE 01 02 2022 TIME 14:07:17.8
 Adsorption tests                                                                

 GEOMETRY INPUT FROM EXTERNAL FILE (FORTRAN UNIT 34)
 2D - SLAB    

 *******************************************************************************
 LATTICE PARAMETERS  (ANGSTROMS AND DEGREES) - PRIMITIVE CELL
       A          B          C        ALPHA      BETA     GAMMA        VOLUME
    3.00979    3.00979  500.00000    90.00000  90.00000  90.00000      9.058828
 INFORMATION **** CHKGRP **** SPGR WITH NO INVERSION

 NUMBER OF IRREDUCIBLE ATOMS IN THE CELL:    3

 CARTESIAN COORDINATES (ANGSTROM) - IRREDUCIBLE ATOMS AND SYMMETRY RELATED

 AT.IRR.  AT  AT.N.          X                   Y                   Z
     1     1    12    0.000000000000E+00  1.504890000000E+00  1.064120000000E+00
     1     2    12    1.504890000000E+00  0.000000000000E+00 -1.064120000000E+00
     3     3     8    0.000000000000E+00  1.504890000000E+00 -1.064120000000E+00
     3     4     8    1.504890000000E+00  0.000000000000E+00  1.064120000000E+00
     5     5     8    1.504890000000E+00  0.000000000000E+00 -3.064120000000E+00
     5     6     8    0.000000000000E+00  1.504890000000E+00  3.064120000000E+00

 SYMMETRY CHANGED DURING OLD RUN :  INFORMATION ON SPACE GROUP LOST 
 NUMBER OF SYMMETRY OPERATORS         :    8
 *******************************************************************************
 LATTICE PARAMETERS (ANGSTROMS AND DEGREES) - BOHR = 0.5291772083 ANGSTROM
 PRIMITIVE CELL
         A              B              C           ALPHA      BETA       GAMMA 
     3.00978870     3.00978870   500.00000000    90.000000  90.000000  90.000000
 *******************************************************************************
 ATOMS IN THE ASYMMETRIC UNIT    3 - ATOMS IN THE UNIT CELL:    6
     ATOM                 X/A                 Y/B             Z(ANGSTROM)
 *******************************************************************************
      1 T  12 MG    3.061608147636E-17  4.999985546474E-01  1.064120000000E+00
      2 F  12 MG    4.999985546474E-01  0.000000000000E+00 -1.064120000000E+00
      3 T   8 O     3.061608147636E-17  4.999985546474E-01 -1.064120000000E+00
      4 F   8 O     4.999985546474E-01  0.000000000000E+00  1.064120000000E+00
      5 T   8 O     4.999985546474E-01  0.000000000000E+00 -3.064120000000E+00
      6 F   8 O     3.061608147636E-17  4.999985546474E-01  3.064120000000E+00

 T = ATOM BELONGING TO THE ASYMMETRIC UNIT
 *******************************************************************************
 * GEOMETRY EDITING - INPUT COORDINATES ARE GIVEN IN ANGSTROM         
 *******************************************************************************

 GEOMETRY NOW FULLY CONSISTENT WITH THE GROUP

 GCALCO - MAX INDICES DIRECT LATTICE VECTOR    83    83     0
 NO.OF VECTORS CREATED 6999 STARS  686 RMAX   268.28716 BOHR

 GEOMETRY FOR WAVE FUNCTION - DIMENSIONALITY OF THE SYSTEM    2
 (NON PERIODIC DIRECTION: LATTICE PARAMETER FORMALLY SET TO 500)
 *******************************************************************************
 LATTICE PARAMETERS (ANGSTROMS AND DEGREES) - BOHR = 0.5291772083 ANGSTROM
 PRIMITIVE CELL
         A              B              C           ALPHA      BETA       GAMMA 
     3.00978870     3.00978870   500.00000000    90.000000  90.000000  90.000000
 *******************************************************************************
 ATOMS IN THE ASYMMETRIC UNIT    3 - ATOMS IN THE UNIT CELL:    6
     ATOM                 X/A                 Y/B             Z(ANGSTROM)
 *******************************************************************************
      1 T  12 MG    0.000000000000E+00 -5.000000000000E-01  1.064120000000E+00
      2 F  12 MG   -5.000000000000E-01  3.061616997868E-17 -1.064120000000E+00
      3 T   8 O     0.000000000000E+00 -5.000000000000E-01 -1.064120000000E+00
      4 F   8 O    -5.000000000000E-01  3.061616997868E-17  1.064120000000E+00
      5 T   8 O    -5.000000000000E-01  0.000000000000E+00 -3.064120000000E+00
      6 F   8 O    -3.061616997868E-17 -5.000000000000E-01  3.064120000000E+00

 T = ATOM BELONGING TO THE ASYMMETRIC UNIT

 ****    8 SYMMOPS - TRANSLATORS IN FRACTIONAL UNITS
 **** MATRICES AND TRANSLATORS IN THE CRYSTALLOGRAPHIC REFERENCE FRAME
   V INV                    ROTATION MATRICES                   TRANSLATORS
   1   1  1.00  0.00  0.00  0.00  1.00  0.00  0.00  0.00  1.00  0.00  0.00  0.00
   2   2 -1.00  0.00  0.00  0.00 -1.00  0.00  0.00  0.00  1.00  0.00  0.00  0.00
   3   3 -0.00 -1.00  0.00 -1.00  0.00  0.00  0.00  0.00 -1.00  0.00  0.00  0.00
   4   4  0.00  1.00  0.00  1.00 -0.00  0.00  0.00  0.00 -1.00  0.00  0.00  0.00
   5   6 -0.00  1.00  0.00 -1.00  0.00  0.00  0.00  0.00 -1.00  0.00  0.00  0.00
   6   5  0.00 -1.00  0.00  1.00 -0.00  0.00  0.00  0.00 -1.00  0.00  0.00  0.00
   7   7 -1.00  0.00  0.00  0.00  1.00  0.00  0.00  0.00  1.00  0.00  0.00  0.00
   8   8  1.00 -0.00  0.00  0.00 -1.00  0.00  0.00  0.00  1.00  0.00  0.00  0.00

 DIRECT LATTICE VECTORS CARTESIAN COMPONENTS (ANGSTROM)
          X                    Y                    Z
   0.300978870041E+01   0.000000000000E+00   0.000000000000E+00
  -0.184296404903E-15   0.300978870041E+01   0.000000000000E+00
   0.000000000000E+00   0.000000000000E+00   0.500000000000E+03


 CARTESIAN COORDINATES - PRIMITIVE CELL
 *******************************************************************************
 *      ATOM          X(ANGSTROM)         Y(ANGSTROM)         Z(ANGSTROM)
 *******************************************************************************
    1    12 MG   -9.214820245174E-17  1.504894350206E+00  1.064120000000E+00
    2    12 MG    1.504894350206E+00  9.214820245174E-17 -1.064120000000E+00
    3     8 O    -9.214820245174E-17  1.504894350206E+00 -1.064120000000E+00
    4     8 O     1.504894350206E+00  9.214820245174E-17  1.064120000000E+00
    5     8 O     1.504894350206E+00  0.000000000000E+00 -3.064120000000E+00
    6     8 O    -1.842964049035E-16  1.504894350206E+00  3.064120000000E+00

 *******************************************************************************
 STARTING BASIS SET HANDLING 
 *******************************************************************************

 Loading internal basis set: STO-3G              

 Please cite in your publication:
 H - Ne: W.J. Hehre, R.F. Stewart and J.A. Pople, J. Chem. Phys. 2657 (1969).   
                                                                                
                                                                                
                    
 Na - Ar: W.J. Hehre, R. Ditchfield, R.F. Stewart, J.A. Pople, J. Chem. Phys.  2
 769 (1970).                                                                    
                                                                                
                    
 K,Ca: W.J. Pietro, B.A. Levy, W.J. Hehre and R.F. Stewart, Inorg. Chem., 1980, 
 19 (8), pp 2225-2229                                                           
                                                                                
                    
 Ga-Kr: J. Am. Chem. Soc. 19, 2225 (1980).                                      
                                                                                
                                                                                
                    
 Sc-Zn, Y-Cd: W.J. Pietro and W.J. Hehre, J. Comp. Chem. 4, 241 (1983).         
                                                                                
                                                                                
                    

 *******************************************************************************
 LOCAL ATOMIC FUNCTIONS BASIS SET
 *******************************************************************************
   ATOM   X(AU)   Y(AU)   Z(AU)  N. TYPE  EXPONENT  S COEF   P COEF   D/F/G COEF
 *******************************************************************************
   1 MG  -0.000   2.844   2.011
                                  1 S  
                                         2.992E+02 1.543E-01 0.000E+00 0.000E+00
                                         5.451E+01 5.353E-01 0.000E+00 0.000E+00
                                         1.475E+01 4.446E-01 0.000E+00 0.000E+00
                                  2 S  
                                         1.512E+01-9.997E-02 0.000E+00 0.000E+00
                                         3.514E+00 3.995E-01 0.000E+00 0.000E+00
                                         1.143E+00 7.001E-01 0.000E+00 0.000E+00
                                  3 S  
                                         1.395E+00-2.196E-01 0.000E+00 0.000E+00
                                         3.893E-01 2.256E-01 0.000E+00 0.000E+00
                                         1.524E-01 9.004E-01 0.000E+00 0.000E+00
                           4-     6 P  
                                         1.512E+01 0.000E+00 1.559E-01 0.000E+00
                                         3.514E+00 0.000E+00 6.077E-01 0.000E+00
                                         1.143E+00 0.000E+00 3.920E-01 0.000E+00
                           7-     9 P  
                                         1.395E+00 0.000E+00 1.059E-02 0.000E+00
                                         3.893E-01 0.000E+00 5.952E-01 0.000E+00
                                         1.524E-01 0.000E+00 4.620E-01 0.000E+00
   2 MG   2.844   0.000  -2.011
   3 O   -0.000   2.844  -2.011
                                 19 S  
                                         1.307E+02 1.543E-01 0.000E+00 0.000E+00
                                         2.381E+01 5.353E-01 0.000E+00 0.000E+00
                                         6.444E+00 4.446E-01 0.000E+00 0.000E+00
                                 20 S  
                                         5.033E+00-9.997E-02 0.000E+00 0.000E+00
                                         1.170E+00 3.995E-01 0.000E+00 0.000E+00
                                         3.804E-01 7.001E-01 0.000E+00 0.000E+00
                          21-    23 P  
                                         5.033E+00 0.000E+00 1.559E-01 0.000E+00
                                         1.170E+00 0.000E+00 6.077E-01 0.000E+00
                                         3.804E-01 0.000E+00 3.920E-01 0.000E+00
   4 O    2.844   0.000   2.011
   5 O    2.844   0.000  -5.790
   6 O   -0.000   2.844   5.790

 *******************************************************************************
 FINISHED BASIS SET HANDLING 
 *******************************************************************************

 INFORMATION **** SET_MPP **** PCRYSTAL CALCULATION
 INFORMATION **** READM2 **** NEW DEFAULT: FOCK/KS MATRIX MIXING SET TO 30 %
 INFORMATION **** READM2 **** NEW DEFAULT: FULL DIRECT SCF MODE
 INFORMATION **** READM2 **** NEW DEFAULT: COULOMB BIPOLAR BUFFER SET TO 32 Mb
 INFORMATION **** READM2 **** NEW DEFAULT: EXCHANGE BIPOLAR BUFFER SET TO 32 Mb

 *******************************************************************************
 NEW DEFAULT: DFT INTEGRATION GRID INCREASED TO XLGRID
 NEW DEFAULT: DIIS ACCELERATOR ACTIVE
 USE KEYWORD NODIIS TO TURN IT OFF
 *******************************************************************************

 INFORMATION **** TOLINTEG **** COULOMB AND EXCHANGE SERIES TOLERANCES MODIFIED
 INFORMATION **** MAXCYCLE **** MAX NUMBER OF SCF CYCLES SET TO         200
 INFORMATION **** DIIS **** DIIS FOR SCF ACTIVE
 INFORMATION **** DIIS **** LEVEL SHIFTER DISABLED
 *******************************************************************************
 N. OF ATOMS PER CELL         6  COULOMB OVERLAP TOL         (T1) 10**   -7
 NUMBER OF SHELLS            22  COULOMB PENETRATION TOL     (T2) 10**   -7
 NUMBER OF AO                38  EXCHANGE OVERLAP TOL        (T3) 10**   -7
 N. OF ELECTRONS PER CELL    56  EXCHANGE PSEUDO OVP (F(G))  (T4) 10**   -7
 CORE ELECTRONS PER CELL     28  EXCHANGE PSEUDO OVP (P(G))  (T5) 10**  -14
 N. OF SYMMETRY OPERATORS     8  POLE ORDER IN MONO ZONE                  4
 *******************************************************************************
 TYPE OF CALCULATION :  RESTRICTED CLOSED SHELL
 KOHN-SHAM HAMILTONIAN

 (EXCHANGE)[CORRELATION] FUNCTIONAL:(BECKE 88)[LEE-YANG-PARR]

 NON-LOCAL WEIGHTING FACTOR (EXCHANGE) =           0.9000
 NON-LOCAL WEIGHTING FACTOR [CORRELATION] =        0.8100

 HYBRID EXCHANGE - PERCENTAGE OF FOCK EXCHANGE    20.0000

 CAPPA:IS1 12;IS2 12;IS3  1; K PTS MONK NET  28; SYMMOPS:K SPACE  16;G SPACE   8

 *******************************************************************************
 MAX NUMBER OF SCF CYCLES     200  CONVERGENCE ON DELTAP        10**-16
 WEIGHT OF F(I) IN F(I+1)      70% CONVERGENCE ON ENERGY        10**- 6
 SHRINK. FACT.(MONKH.)   12 12  1  NUMBER OF K POINTS IN THE IBZ     28
 SHRINKING FACTOR(GILAT NET)   24  NUMBER OF K POINTS(GILAT NET)     91
 *******************************************************************************
 *** K POINTS COORDINATES (OBLIQUE COORDINATES IN UNITS OF IS = 12)
   1-R(  0  0  0)   2-C(  1  0  0)   3-C(  2  0  0)   4-C(  3  0  0)
   5-C(  4  0  0)   6-C(  5  0  0)   7-R(  6  0  0)   8-C(  1  1  0)
   9-C(  2  1  0)  10-C(  3  1  0)  11-C(  4  1  0)  12-C(  5  1  0)
  13-C(  6  1  0)  14-C(  2  2  0)  15-C(  3  2  0)  16-C(  4  2  0)
  17-C(  5  2  0)  18-C(  6  2  0)  19-C(  3  3  0)  20-C(  4  3  0)
  21-C(  5  3  0)  22-C(  6  3  0)  23-C(  4  4  0)  24-C(  5  4  0)
  25-C(  6  4  0)  26-C(  5  5  0)  27-C(  6  5  0)  28-R(  6  6  0)

 DIRECT LATTICE VECTORS COMPON. (A.U.)     RECIP. LATTICE VECTORS COMPON. (A.U.) 
        X            Y            Z              X            Y            Z
    5.6876764    0.0000000    0.0000000      1.1047016    0.0000000    0.0000000
   -0.0000000    5.6876764    0.0000000      0.0000000    1.1047016    0.0000000
    0.0000000    0.0000000  944.8630670      0.0000000    0.0000000    0.0066498

 DISK SPACE FOR EIGENVECTORS (FTN 10)       76532 REALS

 SYMMETRY ADAPTION OF THE BLOCH FUNCTIONS ENABLED
 TTTTTTTTTTTTTTTTTTTTTTTTTTTTTT gordsh1     TELAPSE        0.02 TCPU        0.01

 MATRIX SIZE: P(G)   21446, F(G)    4750, P(G) IRR    1978, F(G) IRR     973
 MAX G-VECTOR INDEX FOR 1- AND 2-ELECTRON INTEGRALS  61

 TTTTTTTTTTTTTTTTTTTTTTTTTTTTTT INPUT       TELAPSE        0.02 TCPU        0.01

 NEIGHBORS OF THE NON-EQUIVALENT ATOMS

 N = NUMBER OF NEIGHBORS AT DISTANCE R
    ATOM  N     R/ANG      R/AU   NEIGHBORS (ATOM LABELS AND CELL INDICES)
   1 MG   1     2.0000     3.7795    6 O    0 0 0
   1 MG   1     2.1282     4.0218    3 O    0 0 0
   1 MG   4     2.1282     4.0218    4 O    0 0 0    4 O   -1 0 0    4 O    0 1 0
                                     4 O   -1 1 0
   1 MG   4     3.0098     5.6877    2 MG   0 0 0    2 MG  -1 0 0    2 MG   0 1 0
                                     2 MG  -1 1 0
   1 MG   4     3.0098     5.6877    1 MG  -1 0 0    1 MG   1 0 0    1 MG   0-1 0
                                     1 MG   0 1 0
   1 MG   4     3.6137     6.8289    6 O   -1 0 0    6 O    1 0 0    6 O    0-1 0
                                     6 O    0 1 0

   3 O    1     2.1282     4.0218    1 MG   0 0 0
   3 O    4     2.1282     4.0218    2 MG   0 0 0    2 MG  -1 0 0    2 MG   0 1 0
                                     2 MG  -1 1 0
   3 O    4     2.9205     5.5190    5 O    0 0 0    5 O   -1 0 0    5 O    0 1 0
                                     5 O   -1 1 0
   3 O    4     3.0098     5.6877    4 O    0 0 0    4 O   -1 0 0    4 O    0 1 0
                                     4 O   -1 1 0
   3 O    4     3.0098     5.6877    3 O   -1 0 0    3 O    1 0 0    3 O    0-1 0
                                     3 O    0 1 0
   3 O    4     3.6862     6.9660    1 MG  -1 0 0    1 MG   1 0 0    1 MG   0-1 0
                                     1 MG   0 1 0

   5 O    1     2.0000     3.7795    2 MG   0 0 0
   5 O    4     2.9205     5.5190    3 O    0 0 0    3 O    1 0 0    3 O    0-1 0
                                     3 O    1-1 0
   5 O    4     3.0098     5.6877    5 O   -1 0 0    5 O    1 0 0    5 O    0-1 0
                                     5 O    0 1 0
   5 O    4     3.6137     6.8289    2 MG  -1 0 0    2 MG   1 0 0    2 MG   0-1 0
                                     2 MG   0 1 0
   5 O    1     4.1282     7.8012    4 O    0 0 0
   5 O    4     4.2565     8.0436    5 O   -1-1 0    5 O    1 1 0    5 O   -1 1 0
                                     5 O    1-1 0


 SYMMETRY ALLOWED INTERNAL DEGREE(S) OF FREEDOM:   3
 TTTTTTTTTTTTTTTTTTTTTTTTTTTTTT SYMM        TELAPSE        0.03 TCPU        0.02
 TTTTTTTTTTTTTTTTTTTTTTTTTTTTTT INT_SCREEN  TELAPSE        0.03 TCPU        0.02
 INFORMATION **** EXCBUF **** EXCH. BIPO BUFFER: WORDS USED =      101763

 DFT PARAMETERS

     ATOM       ELECTRONS   NET CHARGE   R(ANGSTROM)
   1  12  MG     12.0000      0.0000     1.60000000
   3   8  O       8.0000      0.0000     0.74000000

 SIZE OF GRID=      41394
 TTTTTTTTTTTTTTTTTTTTTTTTTTTTTT MAKE_GRID2  TELAPSE        0.56 TCPU        0.55
 BECKE WEIGHT FUNCTION
 RADSAFE =     2.00
 TOLERANCES - DENSITY:10**- 6; POTENTIAL:10**- 9; GRID WGT:10**-14

 RADIAL INTEGRATION  - INTERVALS (POINTS,UPPER LIMIT):            1( 99,  4.0*R)

 ANGULAR INTEGRATION - INTERVALS (ACCURACY LEVEL [N. POINTS] UPPER LIMIT):
  1(  6[ 146]   0.2)  2( 11[ 302]   0.5)  3( 14[ 590]   0.9)  4( 18[1454]   3.5)
  5( 14[ 590]9999.0)
 TTTTTTTTTTTTTTTTTTTTTTTTTTTTTT INT_CALC    TELAPSE        0.56 TCPU        0.55
 EEEEEEEEEE INT_CALC TERMINATION  DATE 01 02 2022 TIME 14:07:18.3

 *******************************************************************************
 Adsorption tests                                                                
 CRYSTAL - SCF - TYPE OF CALCULATION :  RESTRICTED CLOSED SHELL
 *******************************************************************************

 CAPPA:IS1 12;IS2 12;IS3  1; K PTS MONK NET  28; SYMMOPS:K SPACE  16;G SPACE   8

 TTTTTTTTTTTTTTTTTTTTTTTTTTTTTT SDIK        TELAPSE        0.57 TCPU        0.55

 AAAAAAAAAAAAAAAAAAAAAAAAAAAAAAAAAAAAAAAAAAAAAAAAAAAAAAAAAAAAAAAAAAAAAAAAAAAAAAA
         ATOMIC WAVEFUNCTION(S)


 NUCLEAR CHARGE 12.0  SYMMETRY SPECIES            S    P
 N. ELECTRONS   12.0  NUMBER OF PRIMITIVE GTOS    9    6
                      NUMBER OF CONTRACTED GTOS   3    2
                      NUMBER OF CLOSED SHELLS     3    1
                      OPEN SHELL OCCUPATION       0    0

  ZNUC SCFIT  TOTAL HF ENERGY   KINETIC ENERGY   VIRIAL THEOREM ACCURACY
  12.0   4   -1.970073539E+02  1.945732157E+02 -2.012510140E+00  2.9E-06

 NUCLEAR CHARGE  8.0  SYMMETRY SPECIES            S    P
 N. ELECTRONS    8.0  NUMBER OF PRIMITIVE GTOS    6    3
                      NUMBER OF CONTRACTED GTOS   2    1
                      NUMBER OF CLOSED SHELLS     2    0
                      OPEN SHELL OCCUPATION       0    4

  ZNUC SCFIT  TOTAL HF ENERGY   KINETIC ENERGY   VIRIAL THEOREM ACCURACY
   8.0   1   -7.380415023E+01  7.344495887E+01 -2.004890620E+00  0.0E+00

 AAAAAAAAAAAAAAAAAAAAAAAAAAAAAAAAAAAAAAAAAAAAAAAAAAAAAAAAAAAAAAAAAAAAAAAAAAAAAAA

 CHARGE NORMALIZATION FACTOR   1.00000000
 TOTAL ATOMIC CHARGES:
  12.0000000  12.0000000   8.0000000   8.0000000   8.0000000   8.0000000
 TTTTTTTTTTTTTTTTTTTTTTTTTTTTTT MOQGAD      TELAPSE        0.58 TCPU        0.56
 TTTTTTTTTTTTTTTTTTTTTTTTTTTTTT SHELLXN     TELAPSE        3.53 TCPU        3.51
 TTTTTTTTTTTTTTTTTTTTTTTTTTTTTT MONMO3      TELAPSE        3.56 TCPU        3.54
 NUMERICALLY INTEGRATED DENSITY     55.9999976788
 TTTTTTTTTTTTTTTTTTTTTTTTTTTTTT NUMDFT      TELAPSE        3.79 TCPU        3.77
 CYC   0 ETOT(AU) -6.907121678605E+02 DETOT -6.91E+02 tst  0.00E+00 PX  1.00E+00
 TTTTTTTTTTTTTTTTTTTTTTTTTTTTTT DIIS        TELAPSE        3.79 TCPU        3.77
 TTTTTTTTTTTTTTTTTTTTTTTTTTTTTT FDIK        TELAPSE        3.81 TCPU        3.78
 POSSIBLY CONDUCTING STATE - EFERMI(AU) -1.3897961E-01 (RES. CHARGE  1.79E-11;IT. 10)
 TTTTTTTTTTTTTTTTTTTTTTTTTTTTTT PDIG        TELAPSE        3.81 TCPU        3.79
 CHARGE NORMALIZATION FACTOR   1.00000000
 TOTAL ATOMIC CHARGES:
  10.9743158  10.9743158   9.0179016   9.0179016   8.0077827   8.0077827
 TTTTTTTTTTTTTTTTTTTTTTTTTTTTTT MOQGAD      TELAPSE        3.82 TCPU        3.80
 TTTTTTTTTTTTTTTTTTTTTTTTTTTTTT SHELLXN     TELAPSE        6.80 TCPU        6.78
 TTTTTTTTTTTTTTTTTTTTTTTTTTTTTT MONMO3      TELAPSE        6.82 TCPU        6.80
 NUMERICALLY INTEGRATED DENSITY     55.9999995343
 TTTTTTTTTTTTTTTTTTTTTTTTTTTTTT NUMDFT      TELAPSE        7.36 TCPU        7.34
 CYC   1 ETOT(AU) -6.914880316191E+02 DETOT -7.76E-01 tst  0.00E+00 PX  1.00E+00
 TTTTTTTTTTTTTTTTTTTTTTTTTTTTTT DIIS        TELAPSE        7.36 TCPU        7.34
 DIIS TEST: 0.18862E+00 AT SCF   CYCLE   1 - MIX   70 %
 TTTTTTTTTTTTTTTTTTTTTTTTTTTTTT FDIK        TELAPSE        7.37 TCPU        7.34
 POSSIBLY CONDUCTING STATE - EFERMI(AU) -9.1375380E-02 (RES. CHARGE  4.53E-12;IT. 12)
 TTTTTTTTTTTTTTTTTTTTTTTTTTTTTT PDIG        TELAPSE        7.37 TCPU        7.35
 CHARGE NORMALIZATION FACTOR   1.00000000
 TOTAL ATOMIC CHARGES:
  11.1509168  11.1509168   7.1264486   7.1264486   9.7226346   9.7226346
 TTTTTTTTTTTTTTTTTTTTTTTTTTTTTT MOQGAD      TELAPSE        7.38 TCPU        7.36
 TTTTTTTTTTTTTTTTTTTTTTTTTTTTTT SHELLXN     TELAPSE       10.37 TCPU       10.35
 TTTTTTTTTTTTTTTTTTTTTTTTTTTTTT MONMO3      TELAPSE       10.39 TCPU       10.37
 NUMERICALLY INTEGRATED DENSITY     55.9999972947
 TTTTTTTTTTTTTTTTTTTTTTTTTTTTTT NUMDFT      TELAPSE       10.93 TCPU       10.90
 CYC   2 ETOT(AU) -6.875968758186E+02 DETOT  3.89E+00 tst  1.30E-01 PX  8.84E-01
 TTTTTTTTTTTTTTTTTTTTTTTTTTTTTT DIIS        TELAPSE       10.93 TCPU       10.90
 DIIS TEST: 0.21035E+01 AT SCF   CYCLE   2 - DIIS ACTIVE - HISTORY:     2 CYCLES
 TTTTTTTTTTTTTTTTTTTTTTTTTTTTTT FDIK        TELAPSE       10.93 TCPU       10.91
 POSSIBLY CONDUCTING STATE - EFERMI(AU) -1.6120014E-01 (RES. CHARGE  2.73E-10;IT.  8)
 TTTTTTTTTTTTTTTTTTTTTTTTTTTTTT PDIG        TELAPSE       10.94 TCPU       10.92
 CHARGE NORMALIZATION FACTOR   1.00000000
 TOTAL ATOMIC CHARGES:
  11.8065449  11.8065449   8.5615104   8.5615104   7.6319447   7.6319447
 TTTTTTTTTTTTTTTTTTTTTTTTTTTTTT MOQGAD      TELAPSE       10.95 TCPU       10.92
 TTTTTTTTTTTTTTTTTTTTTTTTTTTTTT SHELLXN     TELAPSE       13.93 TCPU       13.90
 TTTTTTTTTTTTTTTTTTTTTTTTTTTTTT MONMO3      TELAPSE       13.95 TCPU       13.93
 NUMERICALLY INTEGRATED DENSITY     56.0000005864
 TTTTTTTTTTTTTTTTTTTTTTTTTTTTTT NUMDFT      TELAPSE       14.49 TCPU       14.46
 CYC   3 ETOT(AU) -6.913266040568E+02 DETOT -3.73E+00 tst  8.08E-02 PX  9.84E-01
 TTTTTTTTTTTTTTTTTTTTTTTTTTTTTT DIIS        TELAPSE       14.49 TCPU       14.46
 DIIS TEST: 0.36119E+00 AT SCF   CYCLE   3 - DIIS ACTIVE - HISTORY:     3 CYCLES
 TTTTTTTTTTTTTTTTTTTTTTTTTTTTTT FDIK        TELAPSE       14.49 TCPU       14.47
 POSSIBLY CONDUCTING STATE - EFERMI(AU) -1.3951880E-01 (RES. CHARGE  1.35E-12;IT. 12)
 TTTTTTTTTTTTTTTTTTTTTTTTTTTTTT PDIG        TELAPSE       14.50 TCPU       14.48
 CHARGE NORMALIZATION FACTOR   1.00000000
 TOTAL ATOMIC CHARGES:
  11.4615046  11.4615046   7.2745857   7.2745857   9.2639096   9.2639096
 TTTTTTTTTTTTTTTTTTTTTTTTTTTTTT MOQGAD      TELAPSE       14.51 TCPU       14.48
 TTTTTTTTTTTTTTTTTTTTTTTTTTTTTT SHELLXN     TELAPSE       17.50 TCPU       17.47
 TTTTTTTTTTTTTTTTTTTTTTTTTTTTTT MONMO3      TELAPSE       17.52 TCPU       17.50
 NUMERICALLY INTEGRATED DENSITY     55.9999982730
 TTTTTTTTTTTTTTTTTTTTTTTTTTTTTT NUMDFT      TELAPSE       18.08 TCPU       18.06
 CYC   4 ETOT(AU) -6.894010543819E+02 DETOT  1.93E+00 tst  5.06E-02 PX  7.74E-01
 TTTTTTTTTTTTTTTTTTTTTTTTTTTTTT DIIS        TELAPSE       18.08 TCPU       18.06
 DIIS TEST: 0.89781E+01 AT SCF   CYCLE   4 - DIIS ACTIVE - HISTORY:     4 CYCLES
 TTTTTTTTTTTTTTTTTTTTTTTTTTTTTT FDIK        TELAPSE       18.09 TCPU       18.06
 POSSIBLY CONDUCTING STATE - EFERMI(AU) -1.2622949E-01 (RES. CHARGE  6.39E-14;IT. 14)
 TTTTTTTTTTTTTTTTTTTTTTTTTTTTTT PDIG        TELAPSE       18.10 TCPU       18.07
 CHARGE NORMALIZATION FACTOR   1.00000000
 TOTAL ATOMIC CHARGES:
  11.4043626  11.4043626   7.0023054   7.0023054   9.5933320   9.5933320
 TTTTTTTTTTTTTTTTTTTTTTTTTTTTTT MOQGAD      TELAPSE       18.10 TCPU       18.08
 TTTTTTTTTTTTTTTTTTTTTTTTTTTTTT SHELLXN     TELAPSE       21.10 TCPU       21.07
 TTTTTTTTTTTTTTTTTTTTTTTTTTTTTT MONMO3      TELAPSE       21.12 TCPU       21.10
 NUMERICALLY INTEGRATED DENSITY     55.9999976785
 TTTTTTTTTTTTTTTTTTTTTTTTTTTTTT NUMDFT      TELAPSE       21.66 TCPU       21.63
 CYC   5 ETOT(AU) -6.880220642439E+02 DETOT  1.38E+00 tst  5.31E-03 PX  1.63E-01
 TTTTTTTTTTTTTTTTTTTTTTTTTTTTTT DIIS        TELAPSE       21.66 TCPU       21.64
 DIIS TEST: 0.21677E+01 AT SCF   CYCLE   5 - DIIS ACTIVE - HISTORY:     5 CYCLES
 TTTTTTTTTTTTTTTTTTTTTTTTTTTTTT FDIK        TELAPSE       21.67 TCPU       21.64
 POSSIBLY CONDUCTING STATE - EFERMI(AU)  2.6203239E-03 (RES. CHARGE  9.77E-10;IT. 10)
 TTTTTTTTTTTTTTTTTTTTTTTTTTTTTT PDIG        TELAPSE       21.67 TCPU       21.65
 CHARGE NORMALIZATION FACTOR   1.00000000
 TOTAL ATOMIC CHARGES:
  11.3713847  11.3713847   6.8223104   6.8223104   9.8063049   9.8063049
 TTTTTTTTTTTTTTTTTTTTTTTTTTTTTT MOQGAD      TELAPSE       21.68 TCPU       21.65
 TTTTTTTTTTTTTTTTTTTTTTTTTTTTTT SHELLXN     TELAPSE       24.67 TCPU       24.64
 TTTTTTTTTTTTTTTTTTTTTTTTTTTTTT MONMO3      TELAPSE       24.69 TCPU       24.67
 NUMERICALLY INTEGRATED DENSITY     55.9999973634
 TTTTTTTTTTTTTTTTTTTTTTTTTTTTTT NUMDFT      TELAPSE       25.23 TCPU       25.20
 CYC   6 ETOT(AU) -6.869436047672E+02 DETOT  1.08E+00 tst  2.73E-02 PX  1.14E-01
 TTTTTTTTTTTTTTTTTTTTTTTTTTTTTT DIIS        TELAPSE       25.23 TCPU       25.21
 DIIS TEST: 0.29658E+01 AT SCF   CYCLE   6 - DIIS ACTIVE - HISTORY:     6 CYCLES
 TTTTTTTTTTTTTTTTTTTTTTTTTTTTTT FDIK        TELAPSE       25.24 TCPU       25.21
 POSSIBLY CONDUCTING STATE - EFERMI(AU) -6.6709526E-02 (RES. CHARGE  2.61E-11;IT. 12)
 TTTTTTTTTTTTTTTTTTTTTTTTTTTTTT PDIG        TELAPSE       25.25 TCPU       25.22
 CHARGE NORMALIZATION FACTOR   1.00000000
 TOTAL ATOMIC CHARGES:
  11.3541003  11.3541003   6.8942624   6.8942624   9.7516374   9.7516374
 TTTTTTTTTTTTTTTTTTTTTTTTTTTTTT MOQGAD      TELAPSE       25.25 TCPU       25.22
 TTTTTTTTTTTTTTTTTTTTTTTTTTTTTT SHELLXN     TELAPSE       28.25 TCPU       28.22
 TTTTTTTTTTTTTTTTTTTTTTTTTTTTTT MONMO3      TELAPSE       28.27 TCPU       28.25
 NUMERICALLY INTEGRATED DENSITY     55.9999974198
 TTTTTTTTTTTTTTTTTTTTTTTTTTTTTT NUMDFT      TELAPSE       28.81 TCPU       28.78
 CYC   7 ETOT(AU) -6.872649946776E+02 DETOT -3.21E-01 tst  8.37E-04 PX  4.32E-02
 TTTTTTTTTTTTTTTTTTTTTTTTTTTTTT DIIS        TELAPSE       28.81 TCPU       28.78
 DIIS TEST: 0.20799E+01 AT SCF   CYCLE   7 - DIIS ACTIVE - HISTORY:     7 CYCLES
 TTTTTTTTTTTTTTTTTTTTTTTTTTTTTT FDIK        TELAPSE       28.82 TCPU       28.79
 POSSIBLY CONDUCTING STATE - EFERMI(AU) -9.1697339E-02 (RES. CHARGE  1.06E-10;IT. 12)
 TTTTTTTTTTTTTTTTTTTTTTTTTTTTTT PDIG        TELAPSE       28.83 TCPU       28.80
 CHARGE NORMALIZATION FACTOR   1.00000000
 TOTAL ATOMIC CHARGES:
  11.3652811  11.3652811   6.9218665   6.9218665   9.7128524   9.7128524
 TTTTTTTTTTTTTTTTTTTTTTTTTTTTTT MOQGAD      TELAPSE       28.83 TCPU       28.80
 TTTTTTTTTTTTTTTTTTTTTTTTTTTTTT SHELLXN     TELAPSE       31.82 TCPU       31.79
 TTTTTTTTTTTTTTTTTTTTTTTTTTTTTT MONMO3      TELAPSE       31.84 TCPU       31.81
 NUMERICALLY INTEGRATED DENSITY     55.9999974742
 TTTTTTTTTTTTTTTTTTTTTTTTTTTTTT NUMDFT      TELAPSE       32.38 TCPU       32.35
 CYC   8 ETOT(AU) -6.874590343088E+02 DETOT -1.94E-01 tst  4.54E-04 PX  2.34E-02
 TTTTTTTTTTTTTTTTTTTTTTTTTTTTTT DIIS        TELAPSE       32.38 TCPU       32.35
 DIIS TEST: 0.21339E+01 AT SCF   CYCLE   8 - DIIS ACTIVE - HISTORY:     8 CYCLES
 TTTTTTTTTTTTTTTTTTTTTTTTTTTTTT FDIK        TELAPSE       32.39 TCPU       32.36
 POSSIBLY CONDUCTING STATE - EFERMI(AU) -1.3940830E-01 (RES. CHARGE  8.53E-14;IT. 14)
 TTTTTTTTTTTTTTTTTTTTTTTTTTTTTT PDIG        TELAPSE       32.39 TCPU       32.36
 CHARGE NORMALIZATION FACTOR   1.00000000
 TOTAL ATOMIC CHARGES:
  11.4064615  11.4064615   7.4677163   7.4677163   9.1258222   9.1258222
 TTTTTTTTTTTTTTTTTTTTTTTTTTTTTT MOQGAD      TELAPSE       32.40 TCPU       32.37
 TTTTTTTTTTTTTTTTTTTTTTTTTTTTTT SHELLXN     TELAPSE       35.41 TCPU       35.38
 TTTTTTTTTTTTTTTTTTTTTTTTTTTTTT MONMO3      TELAPSE       35.43 TCPU       35.40
 NUMERICALLY INTEGRATED DENSITY     55.9999985332
 TTTTTTTTTTTTTTTTTTTTTTTTTTTTTT NUMDFT      TELAPSE       35.97 TCPU       35.94
 CYC   9 ETOT(AU) -6.899359126601E+02 DETOT -2.48E+00 tst  1.50E-02 PX  3.17E-01
 TTTTTTTTTTTTTTTTTTTTTTTTTTTTTT DIIS        TELAPSE       35.97 TCPU       35.94
 DIIS TEST: 0.10594E+02 AT SCF   CYCLE   9 - DIIS ACTIVE - HISTORY:     9 CYCLES
 TTTTTTTTTTTTTTTTTTTTTTTTTTTTTT FDIK        TELAPSE       35.97 TCPU       35.95
 POSSIBLY CONDUCTING STATE - EFERMI(AU) -1.3644716E-01 (RES. CHARGE  2.49E-13;IT. 12)
 TTTTTTTTTTTTTTTTTTTTTTTTTTTTTT PDIG        TELAPSE       35.98 TCPU       35.95
 CHARGE NORMALIZATION FACTOR   1.00000000
 TOTAL ATOMIC CHARGES:
  11.3857873  11.3857873   7.3167586   7.3167586   9.2974541   9.2974541
 TTTTTTTTTTTTTTTTTTTTTTTTTTTTTT MOQGAD      TELAPSE       35.99 TCPU       35.96
 TTTTTTTTTTTTTTTTTTTTTTTTTTTTTT SHELLXN     TELAPSE       39.00 TCPU       38.97
 TTTTTTTTTTTTTTTTTTTTTTTTTTTTTT MONMO3      TELAPSE       39.02 TCPU       38.99
 NUMERICALLY INTEGRATED DENSITY     55.9999982220
 TTTTTTTTTTTTTTTTTTTTTTTTTTTTTT NUMDFT      TELAPSE       39.56 TCPU       39.53
 CYC  10 ETOT(AU) -6.893294127589E+02 DETOT  6.06E-01 tst  3.58E-04 PX  8.66E-02
 TTTTTTTTTTTTTTTTTTTTTTTTTTTTTT DIIS        TELAPSE       39.56 TCPU       39.53
 DIIS TEST: 0.15027E+02 AT SCF   CYCLE  10 - DIIS ACTIVE - HISTORY:    10 CYCLES
 TTTTTTTTTTTTTTTTTTTTTTTTTTTTTT FDIK        TELAPSE       39.57 TCPU       39.54
 POSSIBLY CONDUCTING STATE - EFERMI(AU) -1.4237957E-01 (RES. CHARGE  1.23E-12;IT. 10)
 TTTTTTTTTTTTTTTTTTTTTTTTTTTTTT PDIG        TELAPSE       39.57 TCPU       39.54
 CHARGE NORMALIZATION FACTOR   1.00000000
 TOTAL ATOMIC CHARGES:
  11.3987968  11.3987968   7.6377950   7.6377950   8.9634081   8.9634081
 TTTTTTTTTTTTTTTTTTTTTTTTTTTTTT MOQGAD      TELAPSE       39.58 TCPU       39.55
 TTTTTTTTTTTTTTTTTTTTTTTTTTTTTT SHELLXN     TELAPSE       42.60 TCPU       42.57
 TTTTTTTTTTTTTTTTTTTTTTTTTTTTTT MONMO3      TELAPSE       42.62 TCPU       42.59
 NUMERICALLY INTEGRATED DENSITY     55.9999987838
 TTTTTTTTTTTTTTTTTTTTTTTTTTTTTT NUMDFT      TELAPSE       43.16 TCPU       43.13
 CYC  11 ETOT(AU) -6.904497638951E+02 DETOT -1.12E+00 tst  2.63E-03 PX  1.72E-01
 TTTTTTTTTTTTTTTTTTTTTTTTTTTTTT DIIS        TELAPSE       43.16 TCPU       43.13
 DIIS TEST: 0.70957E+01 AT SCF   CYCLE  11 - DIIS ACTIVE - HISTORY:    11 CYCLES
 TTTTTTTTTTTTTTTTTTTTTTTTTTTTTT FDIK        TELAPSE       43.16 TCPU       43.13
 POSSIBLY CONDUCTING STATE - EFERMI(AU) -1.5136204E-01 (RES. CHARGE  3.55E-11;IT. 12)
 TTTTTTTTTTTTTTTTTTTTTTTTTTTTTT PDIG        TELAPSE       43.17 TCPU       43.14
 CHARGE NORMALIZATION FACTOR   1.00000000
 TOTAL ATOMIC CHARGES:
  11.3738825  11.3738825   8.2020925   8.2020925   8.4240251   8.4240251
 TTTTTTTTTTTTTTTTTTTTTTTTTTTTTT MOQGAD      TELAPSE       43.18 TCPU       43.15
 TTTTTTTTTTTTTTTTTTTTTTTTTTTTTT SHELLXN     TELAPSE       46.19 TCPU       46.16
 TTTTTTTTTTTTTTTTTTTTTTTTTTTTTT MONMO3      TELAPSE       46.22 TCPU       46.19
 NUMERICALLY INTEGRATED DENSITY     55.9999994328
 TTTTTTTTTTTTTTTTTTTTTTTTTTTTTT NUMDFT      TELAPSE       46.75 TCPU       46.72
 CYC  12 ETOT(AU) -6.915060285696E+02 DETOT -1.06E+00 tst  3.21E-02 PX  2.69E-01
 TTTTTTTTTTTTTTTTTTTTTTTTTTTTTT DIIS        TELAPSE       46.76 TCPU       46.72
 DIIS TEST: 0.66325E+00 AT SCF   CYCLE  12 - DIIS ACTIVE - HISTORY:    12 CYCLES
 TTTTTTTTTTTTTTTTTTTTTTTTTTTTTT FDIK        TELAPSE       46.76 TCPU       46.73
 POSSIBLY CONDUCTING STATE - EFERMI(AU) -1.5631852E-01 (RES. CHARGE  2.74E-10;IT.  8)
 TTTTTTTTTTTTTTTTTTTTTTTTTTTTTT PDIG        TELAPSE       46.77 TCPU       46.74
 CHARGE NORMALIZATION FACTOR   1.00000000
 TOTAL ATOMIC CHARGES:
  11.3794982  11.3794982   8.4122685   8.4122685   8.2082333   8.2082333
 TTTTTTTTTTTTTTTTTTTTTTTTTTTTTT MOQGAD      TELAPSE       46.77 TCPU       46.74
 TTTTTTTTTTTTTTTTTTTTTTTTTTTTTT SHELLXN     TELAPSE       49.79 TCPU       49.76
 TTTTTTTTTTTTTTTTTTTTTTTTTTTTTT MONMO3      TELAPSE       49.82 TCPU       49.79
 NUMERICALLY INTEGRATED DENSITY     55.9999996944
 TTTTTTTTTTTTTTTTTTTTTTTTTTTTTT NUMDFT      TELAPSE       50.36 TCPU       50.32
 CYC  13 ETOT(AU) -6.916504569303E+02 DETOT -1.44E-01 tst  1.54E-03 PX  1.24E-01
 TTTTTTTTTTTTTTTTTTTTTTTTTTTTTT DIIS        TELAPSE       50.36 TCPU       50.33
 DIIS TEST: 0.39568E-01 AT SCF   CYCLE  13 - DIIS ACTIVE - HISTORY:    13 CYCLES
 TTTTTTTTTTTTTTTTTTTTTTTTTTTTTT FDIK        TELAPSE       50.36 TCPU       50.33
 POSSIBLY CONDUCTING STATE - EFERMI(AU) -1.5950267E-01 (RES. CHARGE  4.86E-11;IT.  8)
 TTTTTTTTTTTTTTTTTTTTTTTTTTTTTT PDIG        TELAPSE       50.37 TCPU       50.34
 CHARGE NORMALIZATION FACTOR   1.00000000
 TOTAL ATOMIC CHARGES:
  11.3833778  11.3833778   8.5217610   8.5217610   8.0948612   8.0948612
 TTTTTTTTTTTTTTTTTTTTTTTTTTTTTT MOQGAD      TELAPSE       50.38 TCPU       50.35
 TTTTTTTTTTTTTTTTTTTTTTTTTTTTTT SHELLXN     TELAPSE       53.40 TCPU       53.37
 TTTTTTTTTTTTTTTTTTTTTTTTTTTTTT MONMO3      TELAPSE       53.42 TCPU       53.39
 NUMERICALLY INTEGRATED DENSITY     55.9999998398
 TTTTTTTTTTTTTTTTTTTTTTTTTTTTTT NUMDFT      TELAPSE       53.96 TCPU       53.93
 CYC  14 ETOT(AU) -6.916654497196E+02 DETOT -1.50E-02 tst  1.30E-03 PX  8.93E-02
 TTTTTTTTTTTTTTTTTTTTTTTTTTTTTT DIIS        TELAPSE       53.96 TCPU       53.93
 DIIS TEST: 0.13288E-02 AT SCF   CYCLE  14 - DIIS ACTIVE - HISTORY:    14 CYCLES
 TTTTTTTTTTTTTTTTTTTTTTTTTTTTTT FDIK        TELAPSE       53.97 TCPU       53.93
 POSSIBLY CONDUCTING STATE - EFERMI(AU) -1.5999839E-01 (RES. CHARGE  1.19E-10;IT.  8)
 TTTTTTTTTTTTTTTTTTTTTTTTTTTTTT PDIG        TELAPSE       53.97 TCPU       53.94
 CHARGE NORMALIZATION FACTOR   1.00000000
 TOTAL ATOMIC CHARGES:
  11.3838066  11.3838066   8.5275692   8.5275692   8.0886242   8.0886242
 TTTTTTTTTTTTTTTTTTTTTTTTTTTTTT MOQGAD      TELAPSE       53.98 TCPU       53.95
 TTTTTTTTTTTTTTTTTTTTTTTTTTTTTT SHELLXN     TELAPSE       57.00 TCPU       56.97
 TTTTTTTTTTTTTTTTTTTTTTTTTTTTTT MONMO3      TELAPSE       57.03 TCPU       56.99
 NUMERICALLY INTEGRATED DENSITY     55.9999998547
 TTTTTTTTTTTTTTTTTTTTTTTTTTTTTT NUMDFT      TELAPSE       57.57 TCPU       57.53
 CYC  15 ETOT(AU) -6.916653189668E+02 DETOT  1.31E-04 tst  1.48E-04 PX  1.75E-02
 TTTTTTTTTTTTTTTTTTTTTTTTTTTTTT DIIS        TELAPSE       57.57 TCPU       57.53
 DIIS TEST: 0.22177E-02 AT SCF   CYCLE  15 - DIIS ACTIVE - HISTORY:    15 CYCLES
 TTTTTTTTTTTTTTTTTTTTTTTTTTTTTT FDIK        TELAPSE       57.57 TCPU       57.54
 POSSIBLY CONDUCTING STATE - EFERMI(AU) -1.5965756E-01 (RES. CHARGE  1.93E-12;IT. 10)
 TTTTTTTTTTTTTTTTTTTTTTTTTTTTTT PDIG        TELAPSE       57.58 TCPU       57.55
 CHARGE NORMALIZATION FACTOR   1.00000000
 TOTAL ATOMIC CHARGES:
  11.3823924  11.3823924   8.5072357   8.5072357   8.1103719   8.1103719
 TTTTTTTTTTTTTTTTTTTTTTTTTTTTTT MOQGAD      TELAPSE       57.59 TCPU       57.55
 TTTTTTTTTTTTTTTTTTTTTTTTTTTTTT SHELLXN     TELAPSE       60.61 TCPU       60.57
 TTTTTTTTTTTTTTTTTTTTTTTTTTTTTT MONMO3      TELAPSE       60.63 TCPU       60.60
 NUMERICALLY INTEGRATED DENSITY     55.9999998313
 TTTTTTTTTTTTTTTTTTTTTTTTTTTTTT NUMDFT      TELAPSE       61.17 TCPU       61.13
 CYC  16 ETOT(AU) -6.916661248987E+02 DETOT -8.06E-04 tst  2.39E-05 PX  9.66E-03
 TTTTTTTTTTTTTTTTTTTTTTTTTTTTTT DIIS        TELAPSE       61.17 TCPU       61.14
 DIIS TEST: 0.30108E-05 AT SCF   CYCLE  16 - DIIS ACTIVE - HISTORY:    16 CYCLES
 TTTTTTTTTTTTTTTTTTTTTTTTTTTTTT FDIK        TELAPSE       61.18 TCPU       61.14
 POSSIBLY CONDUCTING STATE - EFERMI(AU) -1.5974383E-01 (RES. CHARGE  2.27E-13;IT.  8)
 TTTTTTTTTTTTTTTTTTTTTTTTTTTTTT PDIG        TELAPSE       61.18 TCPU       61.15
 CHARGE NORMALIZATION FACTOR   1.00000000
 TOTAL ATOMIC CHARGES:
  11.3827555  11.3827555   8.5080226   8.5080226   8.1092219   8.1092219
 TTTTTTTTTTTTTTTTTTTTTTTTTTTTTT MOQGAD      TELAPSE       61.19 TCPU       61.16
 TTTTTTTTTTTTTTTTTTTTTTTTTTTTTT SHELLXN     TELAPSE       64.21 TCPU       64.18
 TTTTTTTTTTTTTTTTTTTTTTTTTTTTTT MONMO3      TELAPSE       64.24 TCPU       64.20
 NUMERICALLY INTEGRATED DENSITY     55.9999998334
 TTTTTTTTTTTTTTTTTTTTTTTTTTTTTT NUMDFT      TELAPSE       64.78 TCPU       64.74
 CYC  17 ETOT(AU) -6.916661392561E+02 DETOT -1.44E-05 tst  1.01E-05 PX  4.03E-03
 TTTTTTTTTTTTTTTTTTTTTTTTTTTTTT DIIS        TELAPSE       64.78 TCPU       64.74
 DIIS TEST: 0.10535E-04 AT SCF   CYCLE  17 - DIIS ACTIVE - HISTORY:    17 CYCLES
 TTTTTTTTTTTTTTTTTTTTTTTTTTTTTT FDIK        TELAPSE       64.78 TCPU       64.75
 POSSIBLY CONDUCTING STATE - EFERMI(AU) -1.5974279E-01 (RES. CHARGE  8.70E-13;IT.  6)
 TTTTTTTTTTTTTTTTTTTTTTTTTTTTTT PDIG        TELAPSE       64.79 TCPU       64.75
 CHARGE NORMALIZATION FACTOR   1.00000000
 TOTAL ATOMIC CHARGES:
  11.3828254  11.3828254   8.5067245   8.5067245   8.1104502   8.1104502
 TTTTTTTTTTTTTTTTTTTTTTTTTTTTTT MOQGAD      TELAPSE       64.80 TCPU       64.76
 TTTTTTTTTTTTTTTTTTTTTTTTTTTTTT SHELLXN     TELAPSE       67.82 TCPU       67.78
 TTTTTTTTTTTTTTTTTTTTTTTTTTTTTT MONMO3      TELAPSE       67.84 TCPU       67.80
 NUMERICALLY INTEGRATED DENSITY     55.9999998317
 TTTTTTTTTTTTTTTTTTTTTTTTTTTTTT NUMDFT      TELAPSE       68.38 TCPU       68.34
 CYC  18 ETOT(AU) -6.916661456770E+02 DETOT -6.42E-06 tst  3.93E-06 PX  4.94E-03
 TTTTTTTTTTTTTTTTTTTTTTTTTTTTTT DIIS        TELAPSE       68.38 TCPU       68.34
 DIIS TEST: 0.10707E-06 AT SCF   CYCLE  18 - DIIS ACTIVE - HISTORY:    18 CYCLES
 TTTTTTTTTTTTTTTTTTTTTTTTTTTTTT FDIK        TELAPSE       68.39 TCPU       68.35
 POSSIBLY CONDUCTING STATE - EFERMI(AU) -1.5976738E-01 (RES. CHARGE  8.12E-11;IT.  6)
 TTTTTTTTTTTTTTTTTTTTTTTTTTTTTT PDIG        TELAPSE       68.39 TCPU       68.36
 CHARGE NORMALIZATION FACTOR   1.00000000
 TOTAL ATOMIC CHARGES:
  11.3830033  11.3830033   8.5064123   8.5064123   8.1105844   8.1105844
 TTTTTTTTTTTTTTTTTTTTTTTTTTTTTT MOQGAD      TELAPSE       68.40 TCPU       68.36
 TTTTTTTTTTTTTTTTTTTTTTTTTTTTTT SHELLXN     TELAPSE       71.42 TCPU       71.38
 TTTTTTTTTTTTTTTTTTTTTTTTTTTTTT MONMO3      TELAPSE       71.45 TCPU       71.41
 NUMERICALLY INTEGRATED DENSITY     55.9999998311
 TTTTTTTTTTTTTTTTTTTTTTTTTTTTTT NUMDFT      TELAPSE       71.99 TCPU       71.95
 CYC  19 ETOT(AU) -6.916661610375E+02 DETOT -1.54E-05 tst  1.03E-05 PX  9.95E-03
 TTTTTTTTTTTTTTTTTTTTTTTTTTTTTT DIIS        TELAPSE       71.99 TCPU       71.95
 DIIS TEST: 0.12932E-05 AT SCF   CYCLE  19 - DIIS ACTIVE - HISTORY:    19 CYCLES
 TTTTTTTTTTTTTTTTTTTTTTTTTTTTTT FDIK        TELAPSE       71.99 TCPU       71.95
 POSSIBLY CONDUCTING STATE - EFERMI(AU) -1.5980556E-01 (RES. CHARGE  3.87E-13;IT.  8)
 TTTTTTTTTTTTTTTTTTTTTTTTTTTTTT PDIG        TELAPSE       72.00 TCPU       71.96
 CHARGE NORMALIZATION FACTOR   1.00000000
 TOTAL ATOMIC CHARGES:
  11.3830756  11.3830756   8.5066564   8.5066564   8.1102680   8.1102680
 TTTTTTTTTTTTTTTTTTTTTTTTTTTTTT MOQGAD      TELAPSE       72.01 TCPU       71.97
 TTTTTTTTTTTTTTTTTTTTTTTTTTTTTT SHELLXN     TELAPSE       75.03 TCPU       74.99
 TTTTTTTTTTTTTTTTTTTTTTTTTTTTTT MONMO3      TELAPSE       75.05 TCPU       75.01
 NUMERICALLY INTEGRATED DENSITY     55.9999998323
 TTTTTTTTTTTTTTTTTTTTTTTTTTTTTT NUMDFT      TELAPSE       75.60 TCPU       75.55
 CYC  20 ETOT(AU) -6.916661645926E+02 DETOT -3.56E-06 tst  2.78E-06 PX  6.62E-03
 TTTTTTTTTTTTTTTTTTTTTTTTTTTTTT DIIS        TELAPSE       75.60 TCPU       75.56
 DIIS TEST: 0.62914E-06 AT SCF   CYCLE  20 - DIIS ACTIVE - HISTORY:    20 CYCLES
 TTTTTTTTTTTTTTTTTTTTTTTTTTTTTT FDIK        TELAPSE       75.60 TCPU       75.56
 POSSIBLY CONDUCTING STATE - EFERMI(AU) -1.5982771E-01 (RES. CHARGE  1.45E-10;IT.  6)
 TTTTTTTTTTTTTTTTTTTTTTTTTTTTTT PDIG        TELAPSE       75.61 TCPU       75.57
 CHARGE NORMALIZATION FACTOR   1.00000000
 TOTAL ATOMIC CHARGES:
  11.3832715  11.3832715   8.5071668   8.5071668   8.1095617   8.1095617
 TTTTTTTTTTTTTTTTTTTTTTTTTTTTTT MOQGAD      TELAPSE       75.62 TCPU       75.58
 TTTTTTTTTTTTTTTTTTTTTTTTTTTTTT SHELLXN     TELAPSE       78.67 TCPU       78.63
 TTTTTTTTTTTTTTTTTTTTTTTTTTTTTT MONMO3      TELAPSE       78.70 TCPU       78.65
 NUMERICALLY INTEGRATED DENSITY     55.9999998350
 TTTTTTTTTTTTTTTTTTTTTTTTTTTTTT NUMDFT      TELAPSE       79.23 TCPU       79.19
 CYC  21 ETOT(AU) -6.916661689804E+02 DETOT -4.39E-06 tst  1.24E-05 PX  1.27E-02
 TTTTTTTTTTTTTTTTTTTTTTTTTTTTTT DIIS        TELAPSE       79.24 TCPU       79.19
 DIIS TEST: 0.28345E-07 AT SCF   CYCLE  21 - DIIS ACTIVE - HISTORY:    21 CYCLES
 TTTTTTTTTTTTTTTTTTTTTTTTTTTTTT FDIK        TELAPSE       79.24 TCPU       79.20
 POSSIBLY CONDUCTING STATE - EFERMI(AU) -1.5985781E-01 (RES. CHARGE  3.61E-10;IT.  6)
 TTTTTTTTTTTTTTTTTTTTTTTTTTTTTT PDIG        TELAPSE       79.25 TCPU       79.21
 CHARGE NORMALIZATION FACTOR   1.00000000
 TOTAL ATOMIC CHARGES:
  11.3833031  11.3833031   8.5078378   8.5078378   8.1088591   8.1088591
 TTTTTTTTTTTTTTTTTTTTTTTTTTTTTT MOQGAD      TELAPSE       79.25 TCPU       79.21
 TTTTTTTTTTTTTTTTTTTTTTTTTTTTTT SHELLXN     TELAPSE       82.28 TCPU       82.23
 TTTTTTTTTTTTTTTTTTTTTTTTTTTTTT MONMO3      TELAPSE       82.30 TCPU       82.26
 NUMERICALLY INTEGRATED DENSITY     55.9999998355
 TTTTTTTTTTTTTTTTTTTTTTTTTTTTTT NUMDFT      TELAPSE       82.84 TCPU       82.79
 CYC  22 ETOT(AU) -6.916661704122E+02 DETOT -1.43E-06 tst  2.89E-07 PX  4.95E-04
 TTTTTTTTTTTTTTTTTTTTTTTTTTTTTT DIIS        TELAPSE       82.84 TCPU       82.80
 DIIS TEST: 0.52795E-06 AT SCF   CYCLE  22 - DIIS ACTIVE - HISTORY:    22 CYCLES
 TTTTTTTTTTTTTTTTTTTTTTTTTTTTTT FDIK        TELAPSE       82.85 TCPU       82.80
 POSSIBLY CONDUCTING STATE - EFERMI(AU) -1.5983708E-01 (RES. CHARGE  2.49E-13;IT.  8)
 TTTTTTTTTTTTTTTTTTTTTTTTTTTTTT PDIG        TELAPSE       82.85 TCPU       82.81
 CHARGE NORMALIZATION FACTOR   1.00000000
 TOTAL ATOMIC CHARGES:
  11.3832875  11.3832875   8.5070866   8.5070866   8.1096259   8.1096259
 TTTTTTTTTTTTTTTTTTTTTTTTTTTTTT MOQGAD      TELAPSE       82.86 TCPU       82.82
 TTTTTTTTTTTTTTTTTTTTTTTTTTTTTT SHELLXN     TELAPSE       85.88 TCPU       85.84
 TTTTTTTTTTTTTTTTTTTTTTTTTTTTTT MONMO3      TELAPSE       85.91 TCPU       85.86
 NUMERICALLY INTEGRATED DENSITY     55.9999998346
 TTTTTTTTTTTTTTTTTTTTTTTTTTTTTT NUMDFT      TELAPSE       86.45 TCPU       86.40
 CYC  23 ETOT(AU) -6.916661699502E+02 DETOT  4.62E-07 tst  3.11E-08 PX  3.67E-04
 TTTTTTTTTTTTTTTTTTTTTTTTTTTTTT DIIS        TELAPSE       86.45 TCPU       86.41
 DIIS TEST: 0.55412E-07 AT SCF   CYCLE  23 - DIIS ACTIVE - HISTORY:    23 CYCLES
 TTTTTTTTTTTTTTTTTTTTTTTTTTTTTT FDIK        TELAPSE       86.46 TCPU       86.41
 POSSIBLY CONDUCTING STATE - EFERMI(AU) -1.5978488E-01 (RES. CHARGE  9.64E-11;IT.  6)
 TTTTTTTTTTTTTTTTTTTTTTTTTTTTTT PDIG        TELAPSE       86.46 TCPU       86.42
 CHARGE NORMALIZATION FACTOR   1.00000000
 TOTAL ATOMIC CHARGES:
  11.3832210  11.3832210   8.5060408   8.5060408   8.1107382   8.1107382
 TTTTTTTTTTTTTTTTTTTTTTTTTTTTTT MOQGAD      TELAPSE       86.47 TCPU       86.42
 TTTTTTTTTTTTTTTTTTTTTTTTTTTTTT SHELLXN     TELAPSE       89.49 TCPU       89.45

 ::: DIPOLE MOMENT ALONG NON PERIODIC DIRECTIONS:
 ::: A.U.     (Z)  0.00000E+00
 ::: DEBYE         0.00000E+00

 +++ ENERGIES IN A.U. +++
 ::: EXT EL-POLE                                  -2.2838443660243E+03
 ::: EXT EL-SPHEROPOLE                             0.0000000000000E+00
 ::: BIELET ZONE E-E                               1.1943346888955E+03
 ::: TOTAL E-E                                    -1.0895096771288E+03
 ::: TOTAL E-N + N-E                               1.1884534196709E+03
 ::: TOTAL N-N                                    -1.4158317859994E+03
 ::: KINETIC ENERGY                                6.7946497879029E+02
 ::: PSEUDO TOTAL   ENERGY                        -6.3742306466703E+02
 ::: VIRIAL COEFFICIENT                            1.0319251999683E+00
 TTTTTTTTTTTTTTTTTTTTTTTTTTTTTT MONMO3      TELAPSE       89.52 TCPU       89.47
 NUMERICALLY INTEGRATED DENSITY     55.9999998338
 TTTTTTTTTTTTTTTTTTTTTTTTTTTTTT NUMDFT      TELAPSE       90.06 TCPU       90.01
 CYC  24 ETOT(AU) -6.916661636031E+02 DETOT  6.35E-06 tst  8.52E-07 PX  3.67E-04

 == SCF ENDED - CONVERGENCE ON ENERGY      E(AU) -6.9166616360307E+02 CYCLES  24


 ENERGY EXPRESSION=HARTREE+FOCK EXCH*0.20000+(BECKE      EXCH)*0.80000+LYP        CORR


 TOTAL ENERGY(DFT)(AU)( 24) -6.9166616360307E+02 DE 6.3E-06 tester 8.5E-07
 TTTTTTTTTTTTTTTTTTTTTTTTTTTTTT EDFT        TELAPSE       90.06 TCPU       90.01
 EIGENVECTORS IN FORTRAN UNIT  8
 TTTTTTTTTTTTTTTTTTTTTTTTTTTTTT END         TELAPSE       90.07 TCPU       90.02
 EEEEEEEEEE TERMINATION  DATE 01 02 2022 TIME 14:08:47.8
Tue  1 Feb 2022 14:08:47 GMT
Contents of temporary directory:
total 3768
-rw-r--r--  1 brunocamino  admin  187008  1 Feb 14:08 diis_Fg
-rw-r--r--  1 brunocamino  admin   54384  1 Feb 14:08 diis_Fia1
-rw-r--r--  1 brunocamino  admin   56856  1 Feb 14:08 diis_Fia2
-rw-r--r--  1 brunocamino  admin       0  1 Feb 14:07 diis_Sk
-rw-r--r--  1 brunocamino  admin  431880  1 Feb 14:08 fort.10
-rw-r--r--  1 brunocamino  admin    7792  1 Feb 14:08 fort.11
-rw-r--r--  1 brunocamino  admin    2567  1 Feb 14:07 fort.34
-rw-r--r--  1 brunocamino  admin   52944  1 Feb 14:07 fort.61
-rw-r--r--  1 brunocamino  admin   25024  1 Feb 14:07 fort.62
-rw-r--r--  1 brunocamino  admin  431880  1 Feb 14:08 fort.8
-rw-r--r--  1 brunocamino  admin  137444  1 Feb 14:08 fort.9
-rw-r--r--  1 brunocamino  admin   21448  1 Feb 14:08 fort.95
-rw-r--r--  1 brunocamino  admin  349855  1 Feb 14:08 fort.98
wave function binary file /Users/brunocamino/Desktop/Imperial/crystal-code-tools/CRYSTALpy/examples/data/density/system.f9
file fort.98 saved as /Users/brunocamino/Desktop/Imperial/crystal-code-tools/CRYSTALpy/examples/data/density/system.f98
geometry input file fort.34 saved as /Users/brunocamino/Desktop/Imperial/crystal-code-tools/CRYSTALpy/examples/data/density/system.gui
temporary directory /Users/brunocamino/crystal/tmp removed
