Pre-Calc Summary
--------------------------------------------
  date:                Thu Sep 26 21:46:02 BST 2024
  hostname:            IC-5CD3124HGQ
  system:              Linux IC-5CD3124HGQ 5.15.153.1-microsoft-standard-WSL2 #1 SMP Fri Mar 29 23:14:13 UTC 2024 x86_64 x86_64 x86_64 GNU/Linux
  user:                spica-vir
  input:               /mnt/c/Users/hz1420/Desktop/dCHG/MgOCO_CHG.d3
  output:              /mnt/c/Users/hz1420/Desktop/dCHG/MgOCO_CHG.out
  temporary directory: /mnt/c/Users/hz1420/Desktop/dCHG/MgOCO_CHG_tmpfile
  executable script:   /mnt/c/Users/hz1420/Documents/GitHub/Spica-Vir/HPC-job-submission/PC-Job-Submission/run_job
  executable dir:      module load CRYSTAL/23v1.0.1-intel
  mpi + exe command:   mpiexec -np 6 Pproperties
-------------------------------------------

Find input data: /mnt/c/Users/hz1420/Desktop/dCHG/MgOCO_CHG.d3
Find input reference: /mnt/c/Users/hz1420/Desktop/dCHG/MgOCO.f9
Find input reference: /mnt/c/Users/hz1420/Desktop/dCHG/MgOCO.f9
All files are synchonised.

Job Ready to Go
-------------------------------------------
  Job name       : MgOCO_CHG
  Command        : mpiexec -np 6 Pproperties >> /mnt/c/Users/hz1420/Desktop/dCHG/MgOCO_CHG.out 2>&1
  Temporary dir  : /mnt/c/Users/hz1420/Desktop/dCHG/MgOCO_CHG_tmpfile
  List of files  : total 376
-rwxrwxrwx 1 spica-vir spica-vir     24 Sep 26 21:46 INPUT
-rwxrwxrwx 1 spica-vir spica-vir   7554 Sep 26 21:46 Job_script_MgOCO_CHG
-rwxrwxrwx 1 spica-vir spica-vir 184764 Sep 26 21:46 fort.20
-rwxrwxrwx 1 spica-vir spica-vir 184764 Sep 26 21:46 fort.9
  Input script   :
ECH3
20
RANGE
-20
20
END
-------------------------------------------

 PROCESS            0  OF            6  WORKING
 PROCESS            1  OF            6  WORKING
 PROCESS            2  OF            6  WORKING
 PROCESS            3  OF            6  WORKING
 PROCESS            4  OF            6  WORKING
 PROCESS            5  OF            6  WORKING

         
 *******************************************************************************
 *                                                                             *
 *                               CRYSTAL22                                     *
 *                      public : 1.0.1 - Jul 29th, 2021                        *
 *                       HTTP://WWW.CRYSTAL.UNITO.IT                           *
 *                                                                             *
 *                              MAIN AUTHORS                                   *
 *                                                                             *
 *  R. DOVESI(1,11), V.R. SAUNDERS(2), C. ROETTI(1,11), R. ORLANDO(1,11),      *
 *  C.M. ZICOVICH-WILSON(1,3), F. PASCALE(4), B. CIVALLERI(1,11),              *
 *  K. DOLL(5), N.M. HARRISON(6), I.J. BUSH(7), Ph. D'ARCO(8),                 *
 *  M. LLUNELL(9), M. CAUSA'(10), Y. NOEL(8), L. MASCHIO(1,11), A. ERBA(1,11)  *
 *  M. RE'RAT(14), S. CASASSA(1,11), B.G. SEARLE(2), J.K. DESMARAIS(1)         *
 *                                                                             *
 *        CONTRIBUTIONS TO THE CODE HAVE ALSO BEEN GIVEN BY                    *
 *                                                                             *
 *  M. FERRABONE(1,11), M. DE LA PIERRE(1,11), M. FERRERO(1,11),               *
 *  J. BAIMA(1,11), E. ALBANESE(1,11), M.F. PEINTINGER(12), R. BAST(13),       *
 *  B. KIRTMAN(15), V. LACIVITA(1,11), R. DEMICHELIS(1,16)                     *
 *  G. BRANDEBURG(17), S. SALUSTRO(1,11), G. SANSONE(1,11)                     *
 *  M.T. RUGGIERO(18), L.E. DAGA(1), L. DONA'(1), A. COSSARD(1)                *
 *                                                                             *
 * (1) THEORETICAL CHEMISTRY GROUP - UNIVERSITA' DI TORINO - TORINO (ITALY)    *
 * (2) SCIENTIFIC COMPUTING DEPARTMENT - STFC DARESBURY (UK)                   *
 * (3) UNIVERSIDAD AUTONOMA DEL ESTADO DE MORELOS - CUERNAVACA (MEXICO)        *
 * (4) UNIVERSITE' DE LORRAINE - NANCY (FRANCE)                                *
 * (5) UNIVERSITAET STUTTGART- STUTTGART (GERMANY)                             *
 * (6) IMPERIAL COLLEGE - LONDON (UK)                                          *
 * (7) SCIENTIFIC COMPUTING DEPARTMENT - STFC RAL (UK)                         *
 * (8) UPMC - SORBONNE UNIVERSITES - PARIS (FRANCE)                            *
 * (9) UNIVERSIDAD DE BARCELONA - BARCELONA (SPAIN)                            *
 *(10) UNIVERSITA' DI NAPOLI "FEDERICO II" - NAPOLI (ITALY)                    *
 *(11) NIS - NANOSTRUCTURED INTERFACES AND SURFACES - TORINO (ITALY)           *
 *(12) MPI FUER CHEMISCHE ENERGIEKONVERSION - MUELHEIM AN DER RUHR (GERMANY)   *
 *(13) UNIVERSITY OF TROMSO - TROMSO (NORWAY)                                  *
 *(14) UNIVERSITE' DE PAU ET DES PAYS DE L'ADOUR - PAU (FRANCE)                *
 *(15) UNIVERSITY OF CALIFORNIA SANTA BARBARA - SANTA BARBARA (USA)            *
 *(16) CURTIN UNIVERSITY - PERTH (AUSTRALIA)                                   *
 *(17) UNIVERSITY COLLEGE LONDON - LONDON (UK)                                 *
 *(18) UNIVERSITY OF VERMONT - BURLINGTON (USA)                                *
 *                                                                             *
 *******************************************************************************
 EEEEEEEEEE STARTING  DATE 26 09 2024 TIME 21:46:03.4
 INFORMATION **** SET_MPP **** PCRYSTAL CALCULATION

 *******************************************************************************
 MgO + CO                                                                        
 CRYSTAL - PROPERTIES - TYPE OF CALCULATION :  RESTRICTED CLOSED SHELL
 *******************************************************************************
 KOHN-SHAM HAMILTONIAN

 (EXCHANGE)[CORRELATION] FUNCTIONAL:(PERDEW-BURKE-ERNZERHOF)[PERDEW-BURKE-ERNZERHOF]


 DIRECT LATTICE VECTOR COMPONENTS (ANGSTROM)
         2.97692    0.00000    0.00000
         0.00000    2.97692    0.00000
         0.00000    0.00000  500.00000

 LATTICE PARAMETERS  (ANGSTROM AND DEGREES) - PRIMITIVE CELL
       A          B          C         ALPHA      BETA     GAMMA        VOLUME
    2.97692    2.97692  500.00000     90.0000   90.0000   90.0000       8.86205
 *******************************************************************************
 N. OF ATOMS PER CELL         8 COULOMB OVERLAP TOL          (T1) 10**   -7
 NUMBER OF SHELLS            36 COULOMB PENETRATION TOL      (T2) 10**   -7
 NUMBER OF AO               124 EXCHANGE OVERLAP TOL         (T3) 10**   20
 N. OF ELECTRONS PER CELL    68 EXCHANGE PSEUDO OVP (F(G))   (T4) 10**   20
 CORE ELECTRONS PER CELL     32 EXCHANGE PSEUDO OVP (P(G))   (T5) 10**   20
 N. OF SYMMETRY OPERATORS    16 POLE ORDER IN MONO ZONE                   4
 *******************************************************************************
   ATOM N.AT.  SHELL    X(A)      Y(A)      Z(A)      EXAD       N.ELECT.
 *******************************************************************************
    1  108 O     5     0.744     0.744     4.562   1.292E+00       8.179
    2  108 O     5    -0.744    -0.744    -4.562   1.292E+00       8.179
    3    6 C     5     0.744     0.744     3.413   8.500E-01       5.873
    4    6 C     5    -0.744    -0.744    -3.413   8.500E-01       5.873
    5   12 MG    4     0.744     0.744     1.052   2.800E-01      10.224
    6   12 MG    4    -0.744    -0.744    -1.052   2.800E-01      10.224
    7    8 O     4    -0.744    -0.744     1.052   1.802E-01       9.725
    8    8 O     4     0.744     0.744    -1.052   1.802E-01       9.725
 *******************************************************************************
 DE(K)                   0.000E+00  ENERGY LEVEL SHIFTING        0.00000
 TOTAL ENERGY -7.7704585199862E+02  CONVERGENCE ON ENER        6.006E-09
 KIN. ENERGY   7.7416923849872E+02  VIR. COEFF.           1.05079453E+00
 N. OF SCF CYCLES               12  FERMI ENERGY              -0.196E+00
 WEIGHT OF F(I) IN F(I+1)      30
 SHRINK. FACT.(MONKH.)    20 20  1  SHRINKING FACTOR(GILAT NET)       20
 NUMBER OF K POINTS IN THE IBZ  66  CELL VOLUME (A.U.)         31.646965
 *******************************************************************************

 GCALCO - MAX INDICES DIRECT LATTICE VECTOR    83    83     0
 NO.OF VECTORS CREATED 6999 STARS  686 RMAX   265.35730 BOHR
 TTTTTTTTTTTTTTTTTTTTTTTTTTTTTT gordsh1     TELAPSE        0.99 TCPU        0.36

 MATRIX SIZE: P(G)   47084, F(G)   23944, P(G) IRR    4133, F(G) IRR    4133
 MAX G-VECTOR INDEX FOR 1- AND 2-ELECTRON INTEGRALS  23


 CAPPA:IS1 20;IS2 20;IS3  1; K PTS MONK NET  66; SYMMOPS:K SPACE  16;G SPACE  16

 TTTTTTTTTTTTTTTTTTTTTTTTTTTTTT ECH3 START  TELAPSE        1.00 TCPU        0.36

 3D3D3D3D3D3D3D3D3D3D3D3D3D3D3D3D3D3D3D3D3D3D3D3D3D3D3D3D3D3D3D3D3D3D3D3D3D3D3D
 3D DENSITY, GRID IS  20* 20*136
    Z COORDINATE RANGE IS   -20.000 TO    20.000
 TTTTTTTTTTTTTTTTTTTTTTTTTTTTTT CHARGE      TELAPSE        2.97 TCPU        0.82
 TTTTTTTTTTTTTTTTTTTTTTTTTTTTTT ECH3 END    TELAPSE        2.97 TCPU        0.82
 TTTTTTTTTTTTTTTTTTTTTTTTTTTTTT ECH3        TELAPSE        2.97 TCPU        0.82
 ENDPROP   
 TTTTTTTTTTTTTTTTTTTTTTTTTTTTTT END         TELAPSE        2.97 TCPU        0.82
 EEEEEEEEEE TERMINATION  DATE 26 09 2024 TIME 21:46:05.4
NODE    0 CPU TIME =         0.823
NODE    1 CPU TIME =         2.328
NODE    2 CPU TIME =         2.326
NODE    3 CPU TIME =         2.326
NODE    4 CPU TIME =         2.331
NODE    5 CPU TIME =         2.330
    TOTAL CPU TIME =        12.463
  fort.9               MgOCO_CHG.f9                                          184764   Sep 26 21:46
  fort.31              MgOCO_CHG.f31                                         1099095  Sep 26 21:46
  DENS_CUBE.DAT        MgOCO_CHG_CHG.CUBE                                    717161   Sep 26 21:46
--------------------------------------------

Temporary Directory Disk Info
--------------------------------------------
  Temporary directory      : /mnt/c/Users/hz1420/Desktop/dCHG/MgOCO_CHG_tmpfile

  Disk usage (df -h)
Filesystem      Size  Used Avail Use% Mounted on
C:\             953G  386G  567G  41% /mnt/c

  Usage by folders (du -m)
7	/mnt/c/Users/hz1420/Desktop/dCHG/MgOCO_CHG_tmpfile

  Detailed file list (ls -l .)
    see /mnt/c/Users/hz1420/Desktop/dCHG/MgOCO_CHG.log file
--------------------------------------------

