Pre-Calc Summary
--------------------------------------------
  date:                Sat Jul 27 23:29:21 BST 2024
  hostname:            IC-5CD3124HGQ
  system:              Linux IC-5CD3124HGQ 5.15.153.1-microsoft-standard-WSL2 #1 SMP Fri Mar 29 23:14:13 UTC 2024 x86_64 x86_64 x86_64 GNU/Linux
  user:                spica-vir
  input:               /mnt/c/Users/hz1420/Desktop/charge/band_chg.d3
  output:              /mnt/c/Users/hz1420/Desktop/charge/band_chg.out
  temporary directory: /mnt/c/Users/hz1420/Desktop/charge/band_chg_tmpfile
  executable script:   /mnt/c/Users/hz1420/Documents/GitHub/Spica-Vir/HPC-job-submission/PC-Job-Submission/run_job
  executable dir:      module load CRYSTAL/23v1.0.1-intel
  mpi + exe command:   mpiexec -np 6 Pproperties
-------------------------------------------

Find input data: /mnt/c/Users/hz1420/Desktop/charge/band_chg.d3
Find input reference: /mnt/c/Users/hz1420/Desktop/charge/6x6.f9
Find input reference: /mnt/c/Users/hz1420/Desktop/charge/6x6.f9
All files are synchonised.

Job Ready to Go
-------------------------------------------
  Job name       : band_chg
  Command        : mpiexec -np 6 Pproperties >> /mnt/c/Users/hz1420/Desktop/charge/band_chg.out 2>&1
  Temporary dir  : /mnt/c/Users/hz1420/Desktop/charge/band_chg_tmpfile
  List of files  : total 15992
-rwxrwxrwx 1 spica-vir spica-vir     189 Jul 27 23:29 INPUT
-rwxrwxrwx 1 spica-vir spica-vir    7554 Jul 27 23:29 Job_script_band_chg
-rwxrwxrwx 1 spica-vir spica-vir 8182512 Jul 27 23:29 fort.20
-rwxrwxrwx 1 spica-vir spica-vir 8182512 Jul 27 23:29 fort.9
  Input script   :
BAND
nostrain 6x6 monovacancy
3 6 188 203 224 1 0
0 0 0  3 0 0
3 0 0  2 2 0
2 2 0  0 0 0
ECHG
0
200
COORDINA
12.7064 -7.4408  0.0000
 0.0000  0.0000  0.0000
-0.0907 14.7244  0.0000
END
END
-------------------------------------------

 PROCESS            1  OF            6  WORKING
 PROCESS            3  OF            6  WORKING
 PROCESS            5  OF            6  WORKING
 PROCESS            4  OF            6  WORKING
 PROCESS            0  OF            6  WORKING
 PROCESS            2  OF            6  WORKING

         
 *******************************************************************************
 *                                                                             *
 *                               CRYSTAL22                                     *
 *                      public : 1.0.1 - Jul 29th, 2021                        *
 *                       HTTP://WWW.CRYSTAL.UNITO.IT                           *
 *                                                                             *
 *                              MAIN AUTHORS                                   *
 *                                                                             *
 *  R. DOVESI(1,11), V.R. SAUNDERS(2), C. ROETTI(1,11), R. ORLANDO(1,11),      *
 *  C.M. ZICOVICH-WILSON(1,3), F. PASCALE(4), B. CIVALLERI(1,11),              *
 *  K. DOLL(5), N.M. HARRISON(6), I.J. BUSH(7), Ph. D'ARCO(8),                 *
 *  M. LLUNELL(9), M. CAUSA'(10), Y. NOEL(8), L. MASCHIO(1,11), A. ERBA(1,11)  *
 *  M. RE'RAT(14), S. CASASSA(1,11), B.G. SEARLE(2), J.K. DESMARAIS(1)         *
 *                                                                             *
 *        CONTRIBUTIONS TO THE CODE HAVE ALSO BEEN GIVEN BY                    *
 *                                                                             *
 *  M. FERRABONE(1,11), M. DE LA PIERRE(1,11), M. FERRERO(1,11),               *
 *  J. BAIMA(1,11), E. ALBANESE(1,11), M.F. PEINTINGER(12), R. BAST(13),       *
 *  B. KIRTMAN(15), V. LACIVITA(1,11), R. DEMICHELIS(1,16)                     *
 *  G. BRANDEBURG(17), S. SALUSTRO(1,11), G. SANSONE(1,11)                     *
 *  M.T. RUGGIERO(18), L.E. DAGA(1), L. DONA'(1), A. COSSARD(1)                *
 *                                                                             *
 * (1) THEORETICAL CHEMISTRY GROUP - UNIVERSITA' DI TORINO - TORINO (ITALY)    *
 * (2) SCIENTIFIC COMPUTING DEPARTMENT - STFC DARESBURY (UK)                   *
 * (3) UNIVERSIDAD AUTONOMA DEL ESTADO DE MORELOS - CUERNAVACA (MEXICO)        *
 * (4) UNIVERSITE' DE LORRAINE - NANCY (FRANCE)                                *
 * (5) UNIVERSITAET STUTTGART- STUTTGART (GERMANY)                             *
 * (6) IMPERIAL COLLEGE - LONDON (UK)                                          *
 * (7) SCIENTIFIC COMPUTING DEPARTMENT - STFC RAL (UK)                         *
 * (8) UPMC - SORBONNE UNIVERSITES - PARIS (FRANCE)                            *
 * (9) UNIVERSIDAD DE BARCELONA - BARCELONA (SPAIN)                            *
 *(10) UNIVERSITA' DI NAPOLI "FEDERICO II" - NAPOLI (ITALY)                    *
 *(11) NIS - NANOSTRUCTURED INTERFACES AND SURFACES - TORINO (ITALY)           *
 *(12) MPI FUER CHEMISCHE ENERGIEKONVERSION - MUELHEIM AN DER RUHR (GERMANY)   *
 *(13) UNIVERSITY OF TROMSO - TROMSO (NORWAY)                                  *
 *(14) UNIVERSITE' DE PAU ET DES PAYS DE L'ADOUR - PAU (FRANCE)                *
 *(15) UNIVERSITY OF CALIFORNIA SANTA BARBARA - SANTA BARBARA (USA)            *
 *(16) CURTIN UNIVERSITY - PERTH (AUSTRALIA)                                   *
 *(17) UNIVERSITY COLLEGE LONDON - LONDON (UK)                                 *
 *(18) UNIVERSITY OF VERMONT - BURLINGTON (USA)                                *
 *                                                                             *
 *******************************************************************************
 EEEEEEEEEE STARTING  DATE 27 07 2024 TIME 23:29:22.5
 INFORMATION **** SET_MPP **** PCRYSTAL CALCULATION

 *******************************************************************************
 6x6 graphene nostrain monovacancy                                               
 CRYSTAL - PROPERTIES - TYPE OF CALCULATION :  UNRESTRICTED OPEN SHELL
 *******************************************************************************
 SPIN POLARIZED SYSTEM: SUMMED SPIN DENSITY    2.00000000

 KOHN-SHAM HAMILTONIAN

 (EXCHANGE)[CORRELATION] FUNCTIONAL:(HSE06 SR/GGA)[PERDEW-BURKE-ERNZERHOF]

 RANGE-SEPARATED HYBRID FUNCTIONAL 
 OMEGA (SHORT-RANGE)[LONG-RANGE]:(    0.1100)[    0.0000]

 HYBRID EXCHANGE - PERCENTAGE OF FOCK EXCHANGE    25.0000

 SPIN POLARIZED DFT SELECTED

 DIRECT LATTICE VECTOR COMPONENTS (ANGSTROM)
        12.70639   -7.44076    0.00000
        -0.09069   14.72444    0.00000
         0.00000    0.00000  500.00000

 LATTICE PARAMETERS  (ANGSTROM AND DEGREES) - PRIMITIVE CELL
       A          B          C         ALPHA      BETA     GAMMA        VOLUME
   14.72471   14.72472  500.00000     90.0000   90.0000  120.7058     186.41966
 *******************************************************************************
 N. OF ATOMS PER CELL        71 COULOMB OVERLAP TOL          (T1) 10**   -7
 NUMBER OF SHELLS           284 COULOMB PENETRATION TOL      (T2) 10**   -7
 NUMBER OF AO               994 EXCHANGE OVERLAP TOL         (T3) 10**   -7
 N. OF ELECTRONS PER CELL   426 EXCHANGE PSEUDO OVP (F(G))   (T4) 10**   -7
 CORE ELECTRONS PER CELL    142 EXCHANGE PSEUDO OVP (P(G))   (T5) 10**  -14
 N. OF SYMMETRY OPERATORS     1 POLE ORDER IN MONO ZONE                   4
 *******************************************************************************
   ATOM N.AT.  SHELL    X(A)      Y(A)      Z(A)      EXAD       N.ELECT.
 *******************************************************************************
    1    6 C     4    -1.434     0.022    -0.000   8.000E-01       5.996
    2    6 C     4    -1.426     2.470    -0.000   8.000E-01       6.000
    3    6 C     4    -1.413     4.915    -0.000   8.000E-01       6.003
    4    6 C     4    -1.427     7.358     0.000   8.000E-01       6.001
    5    6 C     4    -1.366    -4.904     0.000   8.000E-01       5.999
    6    6 C     4    -1.415    -2.432     0.000   8.000E-01       6.001
    7    6 C     4     0.695    -1.203    -0.000   8.000E-01       6.000
    8    6 C     4     0.698     1.253    -0.000   8.000E-01       5.996
    9    6 C     4     0.748     3.726    -0.000   8.000E-01       6.003
   10    6 C     4     0.718     6.149    -0.000   8.000E-01       6.001
   11    6 C     4     0.751    -6.122     0.000   8.000E-01       6.001
   12    6 C     4     0.704    -3.656     0.000   8.000E-01       6.001
   13    6 C     4     2.814    -2.437     0.000   8.000E-01       6.001
   14    6 C     4     2.813     0.009    -0.000   8.000E-01       6.001
   15    6 C     4     2.827     2.479    -0.000   8.000E-01       5.997
   16    6 C     4     2.970     5.017    -0.000   8.000E-01       6.020
   17    6 C     4     2.890    -7.323    -0.000   8.000E-01       5.989
   18    6 C     4     2.810    -4.868    -0.000   8.000E-01       5.996
   19    6 C     4     4.926    -3.712     0.000   8.000E-01       6.001
   20    6 C     4     4.930    -1.269     0.000   8.000E-01       5.999
   21    6 C     4     4.931     1.165     0.000   8.000E-01       6.001
   22    6 C     4     4.944     3.590     0.000   8.000E-01       5.992
   23    6 C     4     4.896    -6.164    -0.000   8.000E-01       5.989
   24    6 C     4    -5.684     2.453     0.000   8.000E-01       6.001
   25    6 C     4    -5.659     4.915     0.000   8.000E-01       6.001
   26    6 C     4    -5.657     7.361     0.000   8.000E-01       6.001
   27    6 C     4    -5.658     9.801     0.000   8.000E-01       6.005
   28    6 C     4    -5.582    -2.486     0.000   8.000E-01       5.992
   29    6 C     4    -5.830    -0.064    -0.000   8.000E-01       6.020
   30    6 C     4    -3.601     1.215    -0.000   8.000E-01       6.003
   31    6 C     4    -3.550     3.681    -0.000   8.000E-01       6.003
   32    6 C     4    -3.539     6.130     0.000   8.000E-01       6.000
   33    6 C     4    -3.546     8.580     0.000   8.000E-01       6.001
   34    6 C     4    -3.475    -3.688     0.000   8.000E-01       6.001
   35    6 C     4    -3.560    -1.209    -0.000   8.000E-01       5.997
   36    6 C     4    -0.719    -1.202    -0.000   8.000E-01       5.999
   37    6 C     4    -0.720     1.247    -0.000   8.000E-01       6.002
   38    6 C     4    -0.689     3.700    -0.000   8.000E-01       6.000
   39    6 C     4    -0.707     6.137    -0.000   8.000E-01       5.995
   40    6 C     4    -0.653    -6.130     0.000   8.000E-01       5.999
   41    6 C     4    -0.700    -3.659     0.000   8.000E-01       5.999
   42    6 C     4     1.403    -2.429     0.000   8.000E-01       5.998
   43    6 C     4     1.401     0.021    -0.000   8.000E-01       5.999
   44    6 C     4     1.414     2.479    -0.000   8.000E-01       6.001
   45    6 C     4     1.498     4.967    -0.000   8.000E-01       5.994
   46    6 C     4     1.480    -7.345    -0.000   8.000E-01       5.989
   47    6 C     4     1.408    -4.878     0.000   8.000E-01       6.000
   48    6 C     4     3.521    -3.658     0.000   8.000E-01       6.000
   49    6 C     4     3.519    -1.223     0.000   8.000E-01       5.999
   50    6 C     4     3.522     1.226     0.000   8.000E-01       5.999
   51    6 C     4     3.544     3.696    -0.000   8.000E-01       5.991
   52    6 C     4     3.788    -8.408    -0.000   8.000E-01       6.039
   53    6 C     4     3.502    -6.065    -0.000   8.000E-01       5.976
   54    6 C     4     5.622    -4.954     0.000   8.000E-01       5.989
   55    6 C     4     5.635    -2.499     0.000   8.000E-01       5.999
   56    6 C     4     5.638    -0.059     0.000   8.000E-01       5.998
   57    6 C     4     5.645     2.364     0.000   8.000E-01       5.984
   58    6 C     4     5.775   -10.003     0.000   8.000E-01       6.046
   59    6 C     4     5.387    -7.484    -0.000   8.000E-01       6.039
   60    6 C     4    -5.051     1.186    -0.000   8.000E-01       5.994
   61    6 C     4    -4.961     3.681     0.000   8.000E-01       5.995
   62    6 C     4    -4.952     6.135     0.000   8.000E-01       5.999
   63    6 C     4    -4.952     8.578     0.000   8.000E-01       5.997
   64    6 C     4    -4.870    -3.707     0.000   8.000E-01       5.984
   65    6 C     4    -4.973    -1.221    -0.000   8.000E-01       5.991
   66    6 C     4    -2.854     0.015    -0.000   8.000E-01       6.001
   67    6 C     4    -2.860     2.447    -0.000   8.000E-01       6.000
   68    6 C     4    -2.832     4.906    -0.000   8.000E-01       5.995
   69    6 C     4    -2.837     7.356     0.000   8.000E-01       5.999
   70    6 C     4    -2.768    -4.912     0.000   8.000E-01       5.998
   71    6 C     4    -2.823    -2.437     0.000   8.000E-01       5.999
 *******************************************************************************
 DE(K)                   4.390E-08  ENERGY LEVEL SHIFTING        0.00000
 TOTAL ENERGY -2.7009399698149E+03  CONVERGENCE ON ENER       -3.205E-09
 KIN. ENERGY   2.6926934310614E+03  VIR. COEFF.           1.05701644E+00
 N. OF SCF CYCLES               24  FERMI ENERGY              -0.102E+00
 WEIGHT OF F(I) IN F(I+1)      30
 SHRINK. FACT.(MONKH.)     4  4  1  SHRINKING FACTOR(GILAT NET)        8
 NUMBER OF K POINTS IN THE IBZ  10  CELL VOLUME (A.U.)        665.716690
 *******************************************************************************

 GCALCO - MAX INDICES DIRECT LATTICE VECTOR    83    83     0
 NO.OF VECTORS CREATED 6999 STARS 3500 RMAX  1218.77026 BOHR
 TTTTTTTTTTTTTTTTTTTTTTTTTTTTTT gordsh1     TELAPSE        0.99 TCPU        0.38

 MATRIX SIZE: P(G)  570438, F(G)  135960, P(G) IRR  287278, F(G) IRR  137522
 MAX G-VECTOR INDEX FOR 1- AND 2-ELECTRON INTEGRALS  13


 CAPPA:IS1  4;IS2  4;IS3  1; K PTS MONK NET  10; SYMMOPS:K SPACE   2;G SPACE   1



 *******************************************************************************
 *                                                                             *
 *  BAND STRUCTURE                                                             *
 *  nostrain 6x6 monovacancy                                                   *
 *  FROM BAND 203 TO BAND 224                                                  *
 *  TOTAL OF 188 K-POINTS ALONG THE PATH                                       *
 *                                                                             *
 *******************************************************************************

 LINE  1 ( 0.00 0.00 0.00: 0.50 0.00 0.00) IN TERMS OF PRIMITIVE LATTICE VECTORS
  69 POINTS - SHRINKING_FACTOR 408
 CARTESIAN COORD. ( 0.000 0.000 0.000):( 0.131 0.001 0.000) STEP  0.0019


 LINE  2 ( 0.50 0.00 0.00: 0.33 0.33 0.00) IN TERMS OF PRIMITIVE LATTICE VECTORS
  39 POINTS - SHRINKING_FACTOR 234
 CARTESIAN COORD. ( 0.131 0.001 0.000):( 0.132 0.076 0.000) STEP  0.0019


 LINE  3 ( 0.33 0.33 0.00: 0.00 0.00 0.00) IN TERMS OF PRIMITIVE LATTICE VECTORS
  79 POINTS - SHRINKING_FACTOR 474
 CARTESIAN COORD. ( 0.132 0.076 0.000):( 0.000 0.000 0.000) STEP  0.0019


 1518 DATA WRITTEN ON UNIT 25 WITH THE FOLLOWING HEADER :
 -%-3BAND      0    0    0    3    0    0

  858 DATA WRITTEN ON UNIT 25 WITH THE FOLLOWING HEADER :
 -%-3BAND      3    0    0    2    2    0

 1738 DATA WRITTEN ON UNIT 25 WITH THE FOLLOWING HEADER :
 -%-3BAND      2    2    0    0    0    0

 ENERGY RANGE (A.U.)   -0.23488 -   0.03599 EFERMI  -0.10200
     |--------****--*----------*----*-------------------------**----*------*-------------------------------*-*-----***------|
     |        ****  *          *    *                         **    *      *                               * *     ***      |
     |        ****  *          *    *                         **    *      *                               * *     ***      |
     |        ****  *          *    *                         **    *      *                               * *    ****      |
     |        ****  *          *    *                         **    *      *                               * *    ****      |
     |        ****  *          *    *                        * *    *      *                               * *    ****      |
     |        ****  *          *    *                        * *     *      *                              * *    ****      |
     |        ***** *          *    *                        **|     *      *                              * *   *** *      |
     |        ***** *          *    *                        **|     *      *                              * *   *** *      |
     |        ***** *          *    *                       * *|     *      *                              * *   ****       |
     |        ** ** *          *    *                       * *|      *     *                              * *  *****       |
     |        ** ** *          *    *                       * *|      *     *                              * *  ** **       |
     |        ** ****          *    *                      *  *|      *      *                             * * *** **       |
     |        ** ****          *    *                      * * |       *     *                             * * * * **       |
     |        ** *** *         *     *                     * * |       *     *                             * * ** * *       |
     |        ** * ***         *     *                    *  * |       *     *                             * **** * *       |
     |        ** * ***         *     *                    *  * |        *    *                             * ** * * *       |
     |        ** * ***         *     *                    *  * |        *     *                            * ***  * *       |
     |        ** * ****        *     *                   *  *  |        *     *                            * ***  * *       |
     |        ****  ***        *     *                   *  *  |         *    *                            * ***  * *       |
     |        ****  ***        *     *                   *  *  |         *    *                            ***** *  *       |
     |        ****  ***        *     *                  *   *  |          *    *                           *** * * *        |
     |        ****  ****       *     *                  *  *   |          *    *                           *** * * *        |
     |        ****  ****       *     *                 *   *   |          *    *                          * ** * * *        |
     |        ****  * **       *     *                 *   *   |           *    *                         **** * * *        |
     |        ****   ****      *     *                 *  *    |           *    *                         **** * * *        |
     |        ****   ****      *     *                *   *    |           *    *                         **** * * *        |
     |        ****   * **      *     *                *   *    |            *   *                        *** * * * *        |
     |        ****   * ***     *     *                *   *    |            *    *                       *** * * * *        |
     |        ****   * ***     *     *               *   *     |             *   *                       *** * * * *        |
     |        ****   *  **     *     *               *   *     |             *   *                       *** * * * *        |
     |        ****   *  ***    *     *               *   *     |             *    *                     **** * * * *        |
     |        ****   *  ***    *     *              *    *     |              *   *                     ***  * * * *        |
     |        ****    *  **    *      *             *   *      |              *   *                     ***  * * * *        |
     |        ****    *  * *   *      *            *    *      |              *    *                   ****  * * * *        |
     |        ****    *  ***   *      *            *    *      |               *   *                   ****  * * * *        |
     |        ****    *  ***   *      *            *    *      |               *   *                   ** *  * * * *        |
     |        ****    *   * *  *      *           *    *       |                *   *                 *** *  * * * *        |
     |        ****    *   ***  *      *           *    *       |                *   *                 ****   * * * *        |
     |        ****    *   *** *       *           *    *       |                *   *                 * **   * * * *        |
     |        ****    *    * **       *          *     *       |                 *   *               *** *   * * *  *       |
     |        ****    *    * **       *          *    *        |                 *   *               *** *   * * *  *       |
     |        ****    *    ****       *         *     *        |                 *   *               *** *   * * *  *       |
     |        ****    *    ** *       *         *     *        |                  *  *              *** *    * * *  *       |
     |        ****     *   ** *       *         *     *        |                  *   *             *** *    * * *  *       |
     |       * ***     *    * *       *        *     *         |                   *  *             *** *    * * *  *       |
     |       * ***     *    ****      *        *     *         |                   *  *            ** * *    * * *  *       |
     |       * ***     *    ****      *        *     *         |                   *   *           ** * *    * * *  *       |
     |       * **      *    ****      *       *      *         |                    *  *           *** *      ** *  *       |
     |       * **      *    * * *     *       *     *          |                    *  *          * ** *      ** *  *       |
     |       * **      *    * * *     *      *      *          |                    *   *         ** * *      ** *  *       |
     |       * **      *     ** *     *      *      *          |                     *  *         ** * *      ** *  *       |
     |       * **      *     **  *    *      *      *          |                     *  *        * * * *      ***   *       |
     |       * **      *     *** *    *     *       *          |                      *  *       * **  *      ***   *       |
     |       * **      *     ***  *   *     *       *          |                      *  *      * * * *       ***   *       |
     |       * **      *     ***  *   *     *      *           |                      *  *      * * * *       ***   *       |
     |       * **      *     ***  *   *    *       *           |                       * *      * * * *       ***   *       |
     |       * **      *     ***   *  *    *       *           |                       *  *    * *  * *       ***   *       |
     |       * **      *     ** *  *  *   *        *           |                       *  *    * *  * *       ***   *       |
     |       * **      *      * *  *  *   *        *           |                        * *    * *  * *       ***   *       |
     |       * **      *      * *   * *   *        *           |                        *  *  *  *  * *       ***   *       |
     |       * **      *      * *   * *  *         *           |                         * *  * *  *  *       ***   *       |
     |       * **      *      * *   * *  *         *           |                         * *  * *  *  *       ***   *       |
     |       * **      *      * *    **  *         *           |                         * * *  *  *  *       ***   *       |
     |       * **      *      * *    ** *         *            |                          ** *  *  * *        ***   *       |
     |       * **      *      * *    ** *         *            |                          * **  *  * *        ***   *       |
     |       * **      *      *  *   ** *         *            |                          * *   *  * *        ***   *       |
     |       * **      *      *  *    ***         *            |                           **   *  * *        ***   *       |
     |-------*-**------*------*--*----***---------*------------|---------------------------**---*--*-*--------***---*-------|
     |       * **      *      *  *    ***         *            |                           **   *  * *        ***   *       |
     |        ***      *      *  *    ***         *            |                           **   *  * *        ***   *       |
     |        ****     *      *  *    ***         *            |                           **   *  * *        ***   *       |
     |        ****     *      *  *   * **         *            |                          * *   *  *  *       ***   *       |
     |        ****     *      *  *   * **         *            |                          * *   *  *  *      * **   *       |
     |        ****     *      *  *   * **         *            |                          * **  *  *  *      * * * *        |
     |        *** *     *     *  *   * **         *            |                          * **  *  *  *      * * * *        |
     |        ** **     *    **  *   * **         *            |                          * **  *  *  *      * * * *        |
     |       * * **     *    **  *   * **         *            |                          * **  *  *  *      **  * *        |
     |       **  **     *    **  *   * **         *            |                          * **  *  *  *     * *   **        |
     |       **   *     *    **  *   * **         *            |                          * **  *  *  *     * *   **        |
     |       **   **    *    **  *  *  **         *            |                          * * * * *   *     * *   **        |
     |      * *   **    *    **   * *  **         *            |                          * * * * *   *     * *   **        |
     |      * *    *    *    **   * * * *         *            |                          * * * * *   *     * *   * *       |
     |      * *    *    *    **   * * * *         *            |                         *  * * * *   *    * *    * *       |
     |     *  *    **   *    **   * * * *         *            |                         *  * * * *   *    * *   *  *       |
     |     *  *    **   *    **   * * * *         *            |                         *  *  ** *    *   * *   *  *       |
     |     *  *    **   *   * *   * * * *         *            |                         *  *  ** *    *   * *   *   *      |
     |     * *      **  *   * *   * * * *         *            |                         *  *  ** *    *   **    *   *      |
     |    *  *      **   *  * *   **  * *         *            |                         *  *  ** *    *   **    *   *      |
     |    *  *      **   *  * *   **  * *         *            |                         *  *  ** *    *  * *    *    *     |
     |    *  *      * *  *  * *   **  * *         *            |                         *  *  **  *   *  **     *    *     |
     |   *   *      * *  *  * *   **  * *         *            |                         *  *  **  *   *  **     *    *     |
     |   *   *       **  *  * *   **  * *         *            |                         *  *  **  *   *  **     *     *    |
     |   *   *       **  *  * *   **  * *         *            |                         *  *  **  *   *  *      *     *    |
     |   *   *       * * *  * *   * * * *         *            |                         *  *  * * *   * **     *       *   |
     |  *    *       * * *  * *  *  * * *         *            |                         *  *  * * *   * **     *       *   |
     |  *   *        * * *  * *  *  * * *         *            |                         *  *  * * *   * **     *       *   |
     |  *   *        * * *  * *  *  * * *         *            |                         *  * *  * *   * **     *        *  |
     |  *   *        * * *  * *  *  * * *         *            |                         *  * *   **   ** *     *        *  |
     | *    *        * * *  * *  *  * * *         *            |                         *  * *   * *  ** *     *        *  |
     | *    *         * **  * * *   * **          *            |                         *  * *   * *  ** *     *         * |
     | *    *         * * *  ** *   * **          *            |                         *  * *   * *  *  *     *         * |
     | *    *         * * *  ** *   * **          *            |                         *  * *   * *  *  *     *         * |
     |*     *         * * *  ** *   * **          *            |                         *  * *    ** **  *     *          *|
     |*     *         * * *  ** *   * **          *            |                         *  * *    ** **  *     *          *|
     |*     *         * * *  ** *   * **          *            |                         * *  *    ** **  *     *          *|
     |*     *         * * *  ***    * **          *            |                          **  *    *** *  *     *          *|
     |*-----*---------*-*-*--***----*-**----------*------------|--------------------------**--*----***-*--*-----*----------*|
     |*     *         * * *  ** *   * **          *            |                          **  *    *** *  *     *          *|
     |*     *         * * *  ** *   * **          *            |                         *  * *    * ***  *     *          *|
     |*     *         * * *  ** *   * **          *            |                         *  * *    * ***  *     *          *|
     |*     *         * * *  ** *   *  *          *            |                         *  * *   *  ***  *     *          *|
     | *    *         * * * * * *   *  *          *            |                         *  * *   *  ***  *     *          *|
     | *    *        *  * * * * *   *  *          *            |                         *  * *  *   ***  *     *         * |
     | *    *        *  **  * * *   * **          *            |                         *  * *  *    **  *     *         * |
     | *    *        *  **  * * *    ***          *            |                         *  * *  *    **  *     *         * |
     | *    *        *  **  * * *    ** *         *            |                         *  * * *     **  *     *         * |
     |  *    *       *  ** *  * *    ** *         *            |                         *  * * *     *** *     *        *  |
     |  *    *       *  ** *  * *    ** *         *            |                         *   ***      *** *      *       *  |
     |  *    *       *  ** *  * *    *  *         *            |                        *    ***      * * *      *       *  |
     |  *    *       *  ** *  * *    **  *        *            |                        *    ***      * * *      *       *  |
     |   *   *       *  ***   * *    **  *        *            |                        *    ***       ** *      *      *   |
     |   *   *      *   ***   **     **  *        *            |                        *    ***       ** *      *      *   |
     |   *   *      *   ***   **     **  *        *            |                        *    ***       ****      *      *   |
     |   *   *      *   ***   **    * *   *       *            |                       *    * * *      ****      *      *   |
     |   *   *      *   ***   **    * *   *       *            |                       *    * * *      ****      *     *    |
     |    *   *     *   **    **    *  *  *        *           |                       *    * * *      ****      *     *    |
     |    *   *     *   **    **    *  *   *       *           |                       *   *   **      ****      *     *    |
     |    *   *     *  ***    **   *   *   *       *           |                      *    *   **      * **      *     *    |
     |    *   *     *  ***    *    *   *   *       *           |                      *    *   * *      ***      *    *     |
     |     *  *     *  ***    *    *   *    *      *           |                      *   *    * *      ****     *    *     |
     |     *  *     *  **     *    *   *    *      *           |                     *    *     **      ****     *    *     |
     |     *  *    *   **     *   *    *    *      *           |                     *   *      **      ****     *    *     |
     |     *  *    *   **     *   *    *     *     *           |                     *   *      * *     ****     *   *      |
     |     *   *   *   **     *   *    *     *      *          |                     *   *      * *     ****     *   *      |
     |      *  *   *  * *    **  *     *     *      *          |                    *   *        **     ** **    *   *      |
     |      *  *   *  ***    **  *     *      *     *          |                    *   *        * *    * ***    *   *      |
     |      *  *   *  **     **  *     *      *     *          |                    *   *        * *     ****    *   *      |
     |      *  *   *  **     **  *     *      *     *          |                   *   *         * *     ****    *  *       |
     |       * *   *  **     ** *      *       *     *         |                   *   *          **     ****    *  *       |
     |       * *   *  **    * * *      *       *     *         |                   *   *          * *    *** *   *  *       |
     |       * *   * * *    * * *      *       *     *         |                  *   *           * *    *** *  *   *       |
     |       * *   * ***    *  *       *        *    *         |                  *   *            **    *** *  *  *        |
     |       *  * *  ***    *  *       *        *     *        |                  *   *            * *   * ***  *  *        |
     |       *  * *  ***    *  *      *          *    *        |                 *   *             * *    *** * *  *        |
     |        * * *  **    *  **      *          *    *        |                 *   *              **    *** * *  *        |
     |        * * * * *    *  **      *          *    *        |                 *   *              * *   *** * * *         |
     |        * * * * *    *  **      *           *    *       |                *   *               * *   *** * * *         |
     |        * * * ***    * * *      *           *    *       |                *   *                **   *** * * *         |
     |        * * * ***   *  * *      *           *    *       |               *    *                * *  ** * *  *         |
     |        * * * ***   *  * *      *            *   *       |               *   *                 * *   *** *  *         |
     |         ** ** **   * *  *      *            *    *      |               *   *                  **   *** * *          |
     |         ** ** **   * *  *      *             *   *      |              *    *                  * *  *** * *          |
     |         ** ****   * *   *      *             *   *      |              *   *                   * *  *** * *          |
     |         *** ***   * *   *      *             *   *      |              *   *                    **  *** ***          |
     |         *** ***   * *   *      *              *   *     |             *    *                    * * ** ****          |
     |         *** ***   **    *      *              *   *     |             *   *                      ** * ** **          |
     |         **** **  * *    *     *               *   *     |            *    *                      **  *** **          |
     |         **** **  * *    *     *                *   *    |            *    *                      **  *** **          |
     |          **** *  **     *     *                *   *    |            *   *                        ** *** **          |
     |          *****   **     *     *                *   *    |           *    *                        ** *** **          |
     |          *****  * *     *     *                 *  *    |           *    *                        ** *** **          |
     |          *****  **      *     *                 *   *   |           *    *                         ** ** **          |
     |          *****  **      *     *                  *  *   |          *    *                          ** **** *         |
     |          ** ** **       *     *                  *  *   |          *    *                          ** *** **         |
     |         **** * **       *     *                  *   *  |         *     *                          * **** **         |
     |         **** * **       *     *                   *  *  |         *     *                          * **** **         |
     |         ***** **        *     *                   *  *  |         *    *                           * **** **         |
     |         ***** **        *     *                   *  *  |        *     *                            * *** **         |
     |         ***** **        *     *                    *  * |        *     *                            * ***** *        |
     |         ***** *         *     *                    *  * |        *    *                             * **** **        |
     |         *** ***         *     *                    *  * |       *     *                             * ** * **        |
     |         *** ***         *     *                     * * |       *     *                             * ** * **        |
     |         *** * *         *     *                     *  *|       *     *                             * * *****        |
     |        * ** **          *    *                      *  *|      *      *                             * * *** **       |
     |        * *****          *    *                       * *|      *     *                              * *  ** **       |
     |        ***** *          *    *                       * *|      *     *                              * *  *****       |
     |        ***** *          *    *                       * *|     *      *                              * *  *****       |
     |        ***** *          *    *                        **|     *      *                              * *   ** *       |
     |        ***** *          *    *                        * *     *      *                              * *   ****       |
     |        ****  *          *    *                        * *     *      *                              * *    ***       |
     |        ****  *          *    *                        * *    *      *                               * *    * *       |
     |        ****  *          *    *                         **    *      *                               * *    ****      |
     |        ****  *          *    *                         **    *      *                               * *    ****      |
     |        ****  *          *    *                         **    *      *                               * *     ***      |
     |        ****  *          *    *                         **    *      *                               * *     ***      |
     |--------****--*----------*----*-------------------------**----*------*-------------------------------*-*-----***------|

 1518 DATA WRITTEN ON UNIT 25 WITH THE FOLLOWING HEADER :
 -%-3BAND      0    0    0    3    0    0

  858 DATA WRITTEN ON UNIT 25 WITH THE FOLLOWING HEADER :
 -%-3BAND      3    0    0    2    2    0

 1738 DATA WRITTEN ON UNIT 25 WITH THE FOLLOWING HEADER :
 -%-3BAND      2    2    0    0    0    0

 ENERGY RANGE (A.U.)   -0.23149 -   0.03929 EFERMI  -0.10200
     |--------****--*------------------------*----------------*-----*---------*-----------------*----------**-----***-------|
     |        ****  *                        *                *     *         *                 *          **     ***       |
     |        ****  *                        *               *|     *         *                 *          **     ****      |
     |        ****  *                        *               *|     **        *                 *          **     ***       |
     |        ****  *                        *               *|     **        *                 *          **    ****       |
     |        ****  *                        *               *|     **        *                 *          **    ****       |
     |        ****  *                        *               *|     **        *                 *          **    ****       |
     |        ****  *                        *               *|     **        *                 *          **    ****       |
     |        ***** *                        *              * |     **        *                 *          **   *****       |
     |        *****  *                       *              * |     * *       *                 *          **   * ***       |
     |        *****  *                       *              * |     * *        *                *          ***  ** **       |
     |        *****  *                       *             *  |     * *        *                *          *** *** **       |
     |        *****  *                       *             *  |    *   *       *                *          *** * * **       |
     |        ****** *                      *              *  |    *   *       *                *          *** **  **       |
     |        ****** *                      *              *  |    *   *       *                *          ******  **       |
     |        ****** *                      *             *   |    *    *       *               *          **** * * *       |
     |        ******* *                     *             *   |    *    *       *               *          *****  * *       |
     |        **** ** *                     *             *   |    *    *       *               *          *****  **        |
     |        **** ** *                     *            *    |    *     *      *               *          *****  **        |
     |        **** ** *                     *            *    |   *      *      *               *          *****  **        |
     |        **** ****                     *           *     |   *      *       *              *          ** *   **        |
     |        ****  ** *                    *           *     |   *       *      *              *          ** *   **        |
     |        ****  ** *                    *           *     |   *       *      *              *         *****   **        |
     |        ****  ****                    *          *      |   *       *      *              *         *****  * *        |
     |        ****  * * *                   *          *      |   *        *      *             *         *****  * *        |
     |        ****   ** *                   *          *      |   *        *      *             *         *****  * *        |
     |        ****   ****                   *         *       |  *          *     *             *        ******  * *        |
     |        ****   ****                   *         *       |  *          *     *             *        ******  * *        |
     |        ** *   * * *                  *         *       |  *          *      *            *        * * * * * *        |
     |        ** *   * * *                  *        *        |  *           *     *            *       **** * * * *        |
     |        ** *   * ***                 *         *        |  *           *     *            *       **** * * * *        |
     |        ** *    * * *                *        *         |  *           *     *            *       * ** * * * *        |
     |        ** *    * * *                *        *         |  *            *     *           *      ** ** * * * *        |
     |        ** *    * ***                *        *         |  *            *     *           *      *** * * * * *        |
     |        ** *    *  * *               *       *          | *             *     *           *      * **  * * * *        |
     |        ** *    *  * *               *       *          | *              *     *          *     ** **  **  * *        |
     |        ** *    *  ***               *       *          | *              *     *          *     *** *  **  * *        |
     |       * * *     * ** *              *      *           | *               *    *          *     * * *  **  * *        |
     |       * * *     *  * *              *      *           | *               *    *          *     * * *  **  * *        |
     |       * * *     *  ***              *     *            | *               *     *         *    ** * *  **  * *        |
     |       * * *     *  ** *            *      *            | *                *    *         *    ***  *  **  * *        |
     |       * * *     *  ** *            *      *            | *                *    *         *    * * *   **  * *        |
     |       * * *     *   * *            *     *             | *                *     *        *   ** * *   **  * *        |
     |       * * *     *   ** *           *     *             | *                 *    *        *   ***  *   **  * *        |
     |       * * *     *   ** *           *     *             |*                  *    *        *   * *  *   **  * *        |
     |       * * *     *   ** *           *    *              |*                   *   *        *  ** *  *   **  * *        |
     |       * * *      *  * * *          *    *              |*                   *    *       *  ** *  *   **  * *        |
     |       * * *      *   ** *         *    *               |*                   *    *       *  ***  *    **  * *        |
     |       * **       *   ** *         *    *               |*                    *   *       * ** *  *    **  * *        |
     |       * **       *   **  *        *    *               |*                    *   *       * ** *  *    **  * *        |
     |       * **       *   * * *        *   *                |*                    *    *      * ** *  *    **  * *        |
     |       * **       *   * * *        *   *                |*                     *   *      ** * *  *    **  * *        |
     |       * **       *   * *  *       *   *                |*                     *   *      ** **   *    **  * *        |
     |       * **       *   *  * *      *   *                 |*                      *   *     *** *  *     **  * *        |
     |       * **       *    * * *      *   *                 |*                      *   *     * * *  *     **  * *        |
     |       * **       *    * *  *     *   *                 |*                      *   *     * * *  *     **  * *        |
     |       * **       *    * *  *     *  *                  |*                       *  *     * * *  *     **  * *        |
     |       * **       *    *  * *     *  *                  |*                       *   *   ***  *  *     ** *  *        |
     |       * **       *    *  *  *    * *                   |*                       *   *   ***  *  *      * *  *        |
     |       * **       *    *  *  *    * *                   |*                        *  *   *** *   *      * *  *        |
     |       * **       *    *  *  *   *  *                   |*                        *  *  * ** *   *      * *  *        |
     |       * **       *    *  *   *  * *                    |*                        *  *  * ** *   *      * *  *        |
     |       * **       *    *  *   *  * *                    |*                         *  **  ** *  *       * *  *        |
     |       * **       *    *   *  *  * *                    |*                         *  **  *  *  *       * *  *        |
     |       * **        *   *   *   * **                     |*                          * **  *  *  *       * *  *        |
     |       * **        *   *   *   * **                     |*                          * **  *  *  *       * *  *        |
     |       * **        *   *   *   * **                     |*                          * *   *  *  *       * *  *        |
     |       * **        *   *   *   * **                     |*                          * *   *  *  *       * *  *        |
     |-------*-**--------*---*---*---*-*----------------------|*--------------------------*-*---*--*--*-------*-*--*--------|
     |       * **        *   *   *   * *                      |*                          * *   *  *  *       * *  *        |
     |       * **        *   *   *   * **                     |*                          * *   *  *  *      ** *  *        |
     |        ** *       *   *   *   * **                     |*                          * **  *  *  *      ** *  *        |
     |        ** *       *   *   *   * **                     |*                          ** *  *  *  *      ** *  *        |
     |        ** *       *   *   *   * **                     |*                          ** *  *  *  *      ** *  *        |
     |        ** *       *   *   *   * **                     |*                          ** *  *  *  *      **  *  *       |
     |        ****       *   *   *   ** *                     |*                          ** *  *  *  *      **  *  *       |
     |       * ** *      *   *   *   ** *                     |*                          ** *  *  *  *     * *  *  *       |
     |       * ** *      *   *   *   ** *                     |*                          **  * *  *   *    * *  *  *       |
     |       * * **      *   *   *   ** *                     |*                          **  * *  *   *    * *  *  *       |
     |       * * **      *   *   *   ** *                     |*                          **  * * *    *    * *  *  *       |
     |      *  * **      *   *   *   ** *                     |*                          **  * * *    *    **   *  *       |
     |      * *   **     *   *   *   ** *                     |*                          **  * * *    *    **   *  *       |
     |      * *   **     *   *    * * * *                     |*                          **   ** *    *   * *   *  *       |
     |     *  *   **     *   *    * * * *                     |*                          **   ** *    *   * *   *  *       |
     |     *  *    *     *   *    * * * *                     |*                          **   ** *    *   * *   *   *      |
     |     *  *    *     *   *    * * * *                     |*                          **   ** *    *   **    *   *      |
     |     *  *    **    *   *    * * * *                     |*                         * *   ** *    *   **    *   *      |
     |    *   *     *    *   *    * * * *                     |*                         * *   ** *    *   **    *   *      |
     |    *   *     *    *   *    * * * *                     |*                         * *    * *    *  * *    *    *     |
     |    *   *     **   *   *    * * * *                     |*                         * *    * *    *  * *    *    *     |
     |   *    *     **   *   *    **  * *                     |*                         * *    * *    *  * *    *    *     |
     |   *    *     **   *   *    **  * *                     |*                         *  *  **  *   *  **     *     *    |
     |   *    *     * *  *   *    **  * *                     |*                         *  *  *** *   * * *     *     *    |
     |   *    *      **  *   *    **  * *                     |*                         *  *  *** *   * * *     *     *    |
     |  *    *       **  *   *    **  * *                     |*                         *  *  *** *   * * *     *      *   |
     |  *    *       **  *   *    **  * *                     |*                         *  *  *** *   * * *     *      *   |
     |  *    *       * * *   *    **  * *                     |*                         *  *  *** *   **  *     *      *   |
     | *     *       * * *   *   * *  * *                     |*                         *  *  ** **   **  *     *       *  |
     | *     *       * * *   *   * *  * *                     |*                         *  * * * **   **  *     *       *  |
     | *     *       * * *   *   * *  * *                     |*                         *  * * * **   *   *     *       *  |
     | *     *        **  *  *   * *  * *                     |*                         *  * * * * *  *   *    *         * |
     |*      *        **  *  *   * *  * *                     |*                         *  * * * * * **   *    *         * |
     |*      *        **  *  *   * *  * *                     |*                         *  * * *  ** **   *    *         * |
     |*      *        **  *  *  *  *  * *                     |*                         *  * * *  ** **   *    *         * |
     |*      *        **  *  *  *  *  * *                     |*                         *   ** *  ** **   *    *          *|
     |*      *        **  *  *  *  *  * *                     |*                         *   ** *  *** *   *    *          *|
     |*      *        **  *  *  *  *  * *                     |*                         *   ** *  *** *   *    *          *|
     |*------*--------**--*---*-*--*--*-*---------------------|*-------------------------*---**-*--***-*---*----*----------*|
     |*      *        **  *  *  *  *  * *                     |*                         *   ** *  *** *   *    *          *|
     |*      *        **  *  *  *  *  * *                     |*                         *   ** *  *** *   *    *          *|
     |*      *        **  *  *  *  *  * *                     |*                         *   ** *  ** **   *    *          *|
     |*      *        **  *  *  *  *  * *                     |*                         *   ** * *  ***   *    *         * |
     |*      *        **  *  *  *   * * *                     |*                         *   ** * *  ***   *    *         * |
     |*      *       * *  *  *  *   * * *                     |*                         *   ** * *  ***   *     *        * |
     | *     *       * *  *  *  *   * * *                     |*                         *  * * **   ***   *     *        * |
     | *     *       * * *  *   *   * * *                     |*                         *  * * **   ***   *     *        * |
     | *     *       * * *  *   *   * * *                     |*                         *  * * **   ***   *     *       *  |
     | *     *       * * *  *   *   **   *                    |*                         *  * * *    * **  *     *       *  |
     |  *    *       * * *  *   *    *   *                    |*                         *  *  **     ***  *     *       *  |
     |  *    *       * * *  *   *    *   *                    |*                         *  *  **     ***  *     *       *  |
     |  *     *      * * * *    *    **  *                    *                          *  *  **     ***  *     *      *   |
     |  *     *      * * * *    *   * *   *                   *                         *   *  **     ***  *     *      *   |
     |  *     *      * * * *    *   * *   *                   *                         *   * * *     ***  *     *      *   |
     |   *    *     *  * * *    *   * *   *                   *                         *   * * *     ***  *     *      *   |
     |   *    *     *  **  *   *    * *   *                   *                         *   * * *     ***  *     *     *    |
     |   *    *     *  **  *   *    *  *   *                  *                         *   * * *     ** * *     *     *    |
     |   *    *     *  ** *    *   *   *   *                  *                        *    * * **     *** *      *    *    |
     |    *   *     *  ** *    *   *   *   *                  *                        *   *  * **     *** *      *   *     |
     |    *   *     *  ** *    *   *   *   *                  *                        *   *  * **     ***  *     *   *     |
     |    *   *     *  ** *    *   *    *   *                 |*                       *   *   ***     ***  *     *   *     |
     |    *   *     *  ** *    *  *     *   *                 |*                      *    *   ** *    ***  *     *   *     |
     |     *  *     *  * *    *   *     *   *                 |*                      *   *    ** *    ** * *     *  *      |
     |     *   *    * ** *    *   *     *    *                |*                      *   *    ** *    ** * *     *  *      |
     |     *   *   *  ** *    *  *       *   *                |*                      *   *    ** *    ** * *     *  *      |
     |     *   *   *  ** *    *  *       *   *                |*                     *   *      *  *    *** *     *  *      |
     |     *   *   *  ** *    *  *       *    *               |*                     *   *      *  *    ***  *    * *       |
     |      *  *   *  ***    *   *       *    *               |*                     *   *      *  *    ***  *    * *       |
     |      *  *   *  ***    *  *        *    *               |*                    *    *      *   *   ***  *    * *       |
     |      *  *   * * **    *  *        *     *              |*                    *   *       **  *   ** * *    * *       |
     |      *  *   * ** *    *  *         *    *              |*                   *    *       **  *   ** * *   *  *       |
     |      *  *   * ** *    * *          *    *              |*                   *    *       **  *   ** * *   * *        |
     |       * *   * ** *   *  *          *     *             |*                   *   *        * *  *   * *  *  * *        |
     |       * *   * ***    *  *          *     *             |*                  *    *        * *  *   ***  *  * *        |
     |       * *   * ***    * *           *     *             |*                  *    *        * *  *   ***  *  * *        |
     |       * *   ** **    * *           *      *            |*                  *    *        *  *  *  ***  *  **         |
     |       *  * * ** *   *  *           *      *            |*                 *    *         *  *  *  ** * *  **         |
     |        * * * ** *   * *             *     *            |*                 *    *         *  *  *  ** * *  **         |
     |        * * * ** *   * *             *      *           |*                 *    *         *   *  *  * * * * *         |
     |        * * ** **    * *             *      *           | *               *    *          *   *  *  * *  ** *         |
     |        * * ** **   *  *             *      *           | *               *    *          *   *  *  * *  ** *         |
     |        * * ** **   * *              *       *          | *              *     *          *    *  * ***  ***          |
     |        * * ** **   * *              *       *          | *              *     *          *    *  * ***  ***          |
     |         ** *** *   * *              *        *         | *              *    *           *    *  * ** * ***          |
     |         ** * * *  * *               *        *         | *             *     *           *     *  *** * ***          |
     |         ** * * *  * *               *        *         | *             *     *           *     *  *** * ***          |
     |         ** * **   **                 *        *        | *             *    *            *     *  * *** ***          |
     |         ** * **  * *                 *        *        |  *           *     *            *      *  **** ***          |
     |         ***** *  * *                 *        *        |  *           *     *            *      *  **** ***          |
     |         ***** *  **                  *         *       |  *          *      *            *       * **** ** *         |
     |         *** * * * *                  *         *       |  *          *     *             *       * ***** * *         |
     |          ** * * * *                  *         *       |  *          *     *             *       * ** ** * *         |
     |          ** **  **                   *          *      |  *         *      *             *        ** *** * *         |
     |          ** **  **                   *          *      |  *         *      *             *        * **** * *         |
     |          *** * * *                   *          *      |   *       *      *              *         ***** * *         |
     |          *** * * *                   *           *     |   *       *      *              *         ***** * *         |
     |          *** * **                    *           *     |   *       *      *              *         ***** *  *        |
     |          *** ** *                    *            *    |   *      *       *              *         ****** * *        |
     |          *** ** *                    *            *    |   *      *      *               *          * *** * *        |
     |         ****** *                     *            *    |   *      *      *               *          *** * * *        |
     |         *** ** *                     *             *   |    *    *       *               *          *** * * *        |
     |         *** ** *                     *             *   |    *    *       *               *          *** * * *        |
     |         *** *  *                     *             *   |    *    *       *               *          *** ** * *       |
     |         *** * *                      *              *  |    *   *       *                *          **** * * *       |
     |        ****** *                       *             *  |    *   *       *                *          **** * * *       |
     |        *****  *                       *             *  |    *   *       *                *          *** **** *       |
     |        *****  *                       *              * |     * *        *                *          *** **** *       |
     |        *****  *                       *              * |     * *        *                *          *** *** **       |
     |        *****  *                       *              * |     * *       *                 *          ***  *****       |
     |        ***** *                        *              * |     **        *                 *          **   *****       |
     |        ****  *                        *               *|     **        *                 *          **    ****       |
     |        ****  *                        *               *|     **        *                 *          **    * **       |
     |        ****  *                        *               *|     **        *                 *          **    ****       |
     |        ****  *                        *               *|     **        *                 *          **     ***       |
     |        ****  *                        *               *|     *         *                 *          **     ***       |
     |        ****  *                        *               *|     *         *                 *          **     ***       |
     |        ****  *                        *                *     *         *                 *          **     ***       |
     |--------****--*------------------------*----------------*-----*---------*-----------------*----------**-----***-------|

 CAPPA:IS1  4;IS2  4;IS3  1; K PTS MONK NET  10; SYMMOPS:K SPACE   2;G SPACE   1

 TTTTTTTTTTTTTTTTTTTTTTTTTTTTTT BAND        TELAPSE       43.94 TCPU       42.95
 CHCHCHCHCHCHCHCHCHCHCHCHCHCHCHCHCHCHCHCHCHCHCHCHCHCHCHCHCHCHCHCHCHCHCHCHCHCH

 ELECTRON CHARGE (AND SPIN) DENSITY - DERIVATIVES UP TO ORDER 0

 CHCHCHCHCHCHCHCHCHCHCHCHCHCHCHCHCHCHCHCHCHCHCHCHCHCHCHCHCHCHCHCHCHCHCHCHCHCH

 CO-ORDINATES IN ANGSTROM
 REDEFINITION OF THE WINDOW AS A RECTANGULAR WINDOW

                        COORDINATES OF THE 3 POINTS (BOHR):
              A)   24.012  -14.061    0.000 POINT INDICES (  1,  1)
              B)    0.000    0.000    0.000 POINT INDICES (NPY,  1)
              C)   -0.171   27.825    0.000 POINT INDICES (NPY,NPX)

 N. OF POINTS ALONG THE A-B SEGMENT (NPY)  200
 N. OF POINTS ALONG THE B-C SEGMENT (NPX)  200
 N. OF POINTS IN THE GRID :              40000
 COSINE OF THE ANGLE A-B-C             -0.5106
 N. OF ELEMENTS IN THE SYMMETRY SUB-GROUP    1
 N. OF POINTS IN THE IRREDUCIBLE ZONE :  40000


    ALPHA+BETA ELECTRONS DENSITY - VALMIN  1.9263E-02 VALMAX  1.1793E+02

40000 DATA WRITTEN ON UNIT 25 WITH THE FOLLOWING HEADER
-%-3MAPN  200  200 0.13983E+00 0.13983E+00-0.51063E+00


    ALPHA-BETA ELECTRONS DENSITY - VALMIN -2.5453E-02 VALMAX  3.7125E-01

40000 DATA WRITTEN ON UNIT 25 WITH THE FOLLOWING HEADER
-%-3MAPN  200  200 0.13983E+00 0.13983E+00-0.51063E+00
 TTTTTTTTTTTTTTTTTTTTTTTTTTTTTT ECHG        TELAPSE      136.65 TCPU      134.69
 ENDPROP   
 TTTTTTTTTTTTTTTTTTTTTTTTTTTTTT END         TELAPSE      136.65 TCPU      134.69
 EEEEEEEEEE TERMINATION  DATE 27 07 2024 TIME 23:31:38.2
NODE    0 CPU TIME =       134.692
NODE    1 CPU TIME =       135.709
NODE    2 CPU TIME =       135.796
NODE    3 CPU TIME =       135.805
NODE    4 CPU TIME =       135.805
NODE    5 CPU TIME =       135.804
    TOTAL CPU TIME =       813.612
  fort.9               band_chg.f9                                           8182512  Jul 27 23:29
  fort.25              band_chg.f25                                          1084484  Jul 27 23:31
  BAND.DAT             band_chg.BAND                                         113755   Jul 27 23:30
--------------------------------------------

Temporary Directory Disk Info
--------------------------------------------
  Temporary directory      : /mnt/c/Users/hz1420/Desktop/charge/band_chg_tmpfile

  Disk usage (df -h)
Filesystem      Size  Used Avail Use% Mounted on
C:\             953G  324G  630G  34% /mnt/c

  Usage by folders (du -m)
88	/mnt/c/Users/hz1420/Desktop/charge/band_chg_tmpfile

  Detailed file list (ls -l .)
    see /mnt/c/Users/hz1420/Desktop/charge/band_chg.log file
--------------------------------------------

