# Generated by CRYSTALpytools
 SLAB
 PRIMVEC
    12.706386022   -7.440760906    0.000000000
    -0.090689269   14.724442870    0.000000000
     0.000000000    0.000000000  500.000000000
 PRIMCOORD
         71         1
 C      -1.434323650    0.022017689   -0.000107270
 C      -1.425780735    2.469528416   -0.000192470
 C      -1.413273470    4.914758106   -0.000107207
 C      -1.426615210    7.358220888    0.000040919
 C      -1.365747589   -4.903914593    0.000086169
 C      -1.414821084   -2.431807558    0.000005530
 C       0.694785403   -1.203406272   -0.000063627
 C       0.698094497    1.253169329   -0.000168960
 C       0.747749570    3.725999257   -0.000200842
 C       0.717510832    6.149115430   -0.000085156
 C       0.751418762   -6.122172850    0.000004284
 C       0.703777834   -3.655811730    0.000044763
 C       2.814133031   -2.437396089    0.000021207
 C       2.813414096    0.009367032   -0.000021527
 C       2.827325917    2.478650758   -0.000107377
 C       2.970155703    5.017073965   -0.000112183
 C       2.890363013   -7.322582891   -0.000120676
 C       2.810495923   -4.867923221   -0.000015266
 C       4.926244329   -3.711826365    0.000042470
 C       4.929784665   -1.269182123    0.000089634
 C       4.930763063    1.165269862    0.000104047
 C       4.944085154    3.590489523    0.000154762
 C       4.896353979   -6.164399978   -0.000052846
 C      -5.684045462    2.453186778    0.000033343
 C      -5.659093695    4.914601869    0.000099198
 C      -5.657390953    7.361398858    0.000158652
 C      -5.658320751    9.800504392    0.000173557
 C      -5.581504751   -2.486463509    0.000144055
 C      -5.830003347   -0.063682647   -0.000041186
 C      -3.600687709    1.215436550   -0.000077841
 C      -3.549665122    3.681316374   -0.000016345
 C      -3.539300319    6.130254670    0.000068833
 C      -3.546456712    8.580146626    0.000132037
 C      -3.474536029   -3.687536553    0.000090773
 C      -3.560244239   -1.209211090   -0.000033186
 C      -0.718832409   -1.202179974   -0.000049978
 C      -0.719712534    1.246581917   -0.000144768
 C      -0.689014615    3.700438649   -0.000195133
 C      -0.707325709    6.137237520   -0.000021974
 C      -0.653098506   -6.130109052    0.000066113
 C      -0.700043407   -3.659345046    0.000053377
 C       1.402622304   -2.429416053    0.000025208
 C       1.400534015    0.021437396   -0.000071664
 C       1.413830879    2.479187070   -0.000182327
 C       1.497901675    4.967412100   -0.000115678
 C       1.479557020   -7.345398201   -0.000062864
 C       1.407518681   -4.878334348    0.000016541
 C       3.521000541   -3.658112399    0.000014826
 C       3.519105132   -1.223416461    0.000041484
 C       3.521916391    1.226375987    0.000013238
 C       3.544171958    3.696160491   -0.000043863
 C       3.787847812   -8.407632085   -0.000099268
 C       3.501683967   -6.065091368   -0.000080840
 C       5.621517825   -4.954018921    0.000002265
 C       5.635376896   -2.499448880    0.000073077
 C       5.637857414   -0.059251428    0.000110391
 C       5.645460497    2.364169961    0.000124645
 C       5.775068298  -10.002734935    0.000177016
 C       5.387275509   -7.484161914   -0.000073191
 C      -5.050860488    1.186495532   -0.000025350
 C      -4.961337070    3.681189775    0.000062784
 C      -4.951656891    6.134830816    0.000122066
 C      -4.952329680    8.577693769    0.000138599
 C      -4.870163540   -3.707031975    0.000117045
 C      -4.973066124   -1.221258516   -0.000014176
 C      -2.853956421    0.015182986   -0.000083528
 C      -2.860163431    2.446930182   -0.000104914
 C      -2.832240021    4.905591400   -0.000006934
 C      -2.837083432    7.355679113    0.000103712
 C      -2.767614168   -4.912158035    0.000117384
 C      -2.823033700   -2.436882503    0.000026409

 BEGIN_BLOCK_DATAGRID_2D
   alpha+beta
   BEGIN_DATAGRID_2D_alpha+beta
        100     100
       0.000000000    0.000000000    0.000000000
      -0.090700000   14.724400000    0.000000000
      12.706400000   -7.440800000    0.000000000

   1.425559e-01    1.562941e-01    2.166283e-01    3.441624e-01    5.704664e-01
   9.183538e-01    1.363015e+00    1.799484e+00    2.064477e+00    2.033233e+00
   1.721473e+00    1.271420e+00    8.403364e-01    5.166086e-01    3.121523e-01
   1.997332e-01    1.488386e-01    1.413567e-01    1.741597e-01    2.588182e-01
   4.203598e-01    6.879522e-01    1.067971e+00    1.506066e+00    1.872993e+00
   2.015039e+00    1.862102e+00    1.488656e+00    1.048948e+00    6.708614e-01
   4.069124e-01    2.493914e-01    1.690431e-01    1.418945e-01    1.583706e-01
   2.246008e-01    3.620515e-01    6.015155e-01    9.608211e-01    1.405685e+00
   1.822880e+00    2.051001e+00    1.981459e+00    1.649637e+00    1.203296e+00
   7.901085e-01    4.861541e-01    2.967749e-01    1.940922e-01    1.496889e-01
   1.480936e-01    1.891254e-01    2.882484e-01    4.751786e-01    7.814234e-01
   1.206838e+00    1.677784e+00    2.041526e+00    2.137542e+00    1.917856e+00
   1.489891e+00    1.024532e+00    6.452029e-01    3.911267e-01    2.442040e-01
   1.709252e-01    1.466697e-01    1.620613e-01    2.231431e-01    3.514134e-01
   5.797690e-01    9.329033e-01    1.387714e+00    1.838921e+00    2.118322e+00
   2.093266e+00    1.776074e+00    1.312882e+00    8.673229e-01    5.322756e-01
   3.209474e-01    2.051986e-01    1.532236e-01    1.462357e-01    1.813446e-01
   2.714187e-01    4.438238e-01    7.299673e-01    1.135212e+00    1.597601e+00
   1.975413e+00    2.106823e+00    1.926326e+00    1.522343e+00    1.060811e+00
   6.725255e-01    4.063435e-01    2.496924e-01    1.702281e-01    1.425572e-01
   1.702139e-01    1.625269e-01    1.988849e-01    2.920274e-01    4.680834e-01
   7.547472e-01    1.152831e+00    1.602601e+00    1.971978e+00    2.100723e+00
   1.920374e+00    1.524294e+00    1.074875e+00    6.929797e-01    4.260750e-01
   2.657818e-01    1.825863e-01    1.515359e-01    1.613601e-01    2.155519e-01
   3.320997e-01    5.396366e-01    8.605274e-01    1.276738e+00    1.698603e+00
   1.976331e+00    1.980825e+00    1.708307e+00    1.284640e+00    8.622414e-01
   5.347353e-01    3.226068e-01    2.041898e-01    1.508766e-01    1.451101e-01
   1.848490e-01    2.839389e-01    4.697576e-01    7.699107e-01    1.180351e+00
   1.628899e+00    1.971951e+00    2.059180e+00    1.847647e+00    1.441647e+00
   1.000549e+00    6.378850e-01    3.916227e-01    2.473885e-01    1.752920e-01
   1.529530e-01    1.725725e-01    2.418461e-01    3.836388e-01    6.295953e-01
   9.974646e-01    1.453956e+00    1.888872e+00    2.135450e+00    2.070767e+00
   1.730685e+00    1.272736e+00    8.466730e-01    5.296012e-01    3.298120e-01
   2.205693e-01    1.725590e-01    1.689027e-01    2.081038e-01    3.039990e-01
   4.835823e-01    7.749720e-01    1.179379e+00    1.639008e+00    2.022449e+00
   2.161127e+00    1.978429e+00    1.572875e+00    1.112949e+00    7.209448e-01
   4.458544e-01    2.805607e-01    1.955465e-01    1.655468e-01    1.796920e-01
   2.429650e-01    3.754247e-01    6.060882e-01    9.527973e-01    1.389766e+00
   1.822462e+00    2.093853e+00    2.067879e+00    1.759034e+00    1.315473e+00
   8.870348e-01    5.576432e-01    3.442636e-01    2.247675e-01    1.702193e-01
   2.496621e-01    2.150310e-01    2.297943e-01    2.987299e-01    4.403754e-01
   6.776205e-01    1.017473e+00    1.434041e+00    1.860151e+00    2.151308e+00
   2.123674e+00    1.797817e+00    1.364210e+00    9.536071e-01    6.263804e-01
   4.030200e-01    2.718978e-01    2.085998e-01    1.948973e-01    2.262447e-01
   3.128042e-01    4.767786e-01    7.409671e-01    1.105323e+00    1.523963e+00
   1.892435e+00    2.056710e+00    1.919382e+00    1.556942e+00    1.127417e+00
   7.462983e-01    4.669503e-01    2.929027e-01    2.015512e-01    1.698110e-01
   1.873810e-01    2.600282e-01    4.081690e-01    6.573782e-01    1.015422e+00
   1.446681e+00    1.858255e+00    2.096903e+00    2.030662e+00    1.703131e+00
   1.276758e+00    8.781203e-01    5.702748e-01    3.675852e-01    2.530382e-01
   2.023893e-01    2.007150e-01    2.479345e-01    3.591322e-01    5.595921e-01
   8.682677e-01    1.274288e+00    1.724166e+00    2.099994e+00    2.210451e+00
   1.977296e+00    1.558670e+00    1.124428e+00    7.591201e-01    4.967118e-01
   3.349185e-01    2.510725e-01    2.236344e-01    2.436587e-01    3.173823e-01
   4.641761e-01    7.065034e-01    1.050108e+00    1.471839e+00    1.915117e+00
   2.233375e+00    2.204877e+00    1.855799e+00    1.409113e+00    9.928285e-01
   6.599210e-01    4.310769e-01    2.968761e-01    2.340262e-01    2.251454e-01
   2.672948e-01    3.727375e-01    5.635453e-01    8.557023e-01    1.239696e+00
   1.675692e+00    2.070578e+00    2.225493e+00    2.016342e+00    1.605226e+00
   1.172111e+00    7.982807e-01    5.207116e-01    3.442521e-01    2.496722e-01
   4.062875e-01    3.317016e-01    3.192974e-01    3.661552e-01    4.829446e-01
   6.854756e-01    9.761736e-01    1.340051e+00    1.789584e+00    2.408487e+00
   2.828774e+00    2.312978e+00    1.718484e+00    1.279727e+00    9.202839e-01
   6.366892e-01    4.427953e-01    3.319533e-01    2.861827e-01    2.940647e-01
   3.578945e-01    4.923571e-01    7.142167e-01    1.024067e+00    1.401710e+00
   1.820930e+00    2.191306e+00    2.226863e+00    1.880687e+00    1.441269e+00
   1.035046e+00    6.989722e-01    4.570735e-01    3.104646e-01    2.412671e-01
   2.332002e-01    2.837223e-01    4.055371e-01    6.182689e-01    9.285843e-01
   1.318010e+00    1.761444e+00    2.203318e+00    2.368416e+00    2.051561e+00
   1.601609e+00    1.193308e+00    8.473816e-01    5.824380e-01    4.085239e-01
   3.145925e-01    2.837823e-01    3.087829e-01    3.967710e-01    5.655529e-01
   8.283716e-01    1.177112e+00    1.601764e+00    2.138743e+00    2.705293e+00
   2.544075e+00    1.935699e+00    1.457249e+00    1.075610e+00    7.666580e-01
   5.433071e-01    4.073875e-01    3.441556e-01    3.401768e-01    3.942384e-01
   5.180440e-01    7.268361e-01    1.020767e+00    1.386493e+00    1.862756e+00
   2.670275e+00    3.331309e+00    2.523202e+00    1.784334e+00    1.329233e+00
   9.690946e-01    6.830529e-01    4.858943e-01    3.742876e-01    3.325687e-01
   3.513703e-01    4.350550e-01    5.981818e-01    8.502497e-01    1.180581e+00
   1.586122e+00    2.165885e+00    3.019097e+00    2.888145e+00    2.047816e+00
   1.514333e+00    1.120804e+00    7.982605e-01    5.576149e-01    4.063064e-01
   6.724371e-01    5.421018e-01    4.898643e-01    5.090235e-01    6.024636e-01
   7.785958e-01    1.034027e+00    1.348142e+00    1.773746e+00    3.313743e+00
   1.096037e+01    9.772466e+00    2.930538e+00    1.699804e+00    1.292738e+00
   9.777932e-01    7.244944e-01    5.523701e-01    4.600933e-01    4.362947e-01
   4.766504e-01    5.880209e-01    7.802627e-01    1.048212e+00    1.374683e+00
   1.820572e+00    2.958591e+00    4.757724e+00    3.244316e+00    1.909522e+00
   1.385615e+00    1.016900e+00    7.180970e-01    5.045885e-01    3.816332e-01
   3.371448e-01    3.623802e-01    4.619235e-01    6.487626e-01    9.249537e-01
   1.271191e+00    1.713308e+00    2.712419e+00    5.433307e+00    4.582301e+00
   2.268723e+00    1.583557e+00    1.213620e+00    9.110387e-01    6.747963e-01
   5.211705e-01    4.462437e-01    4.408464e-01    5.048982e-01    6.483800e-01
   8.784374e-01    1.181262e+00    1.554351e+00    2.294467e+00    6.306325e+00
   1.130967e+01    4.364755e+00    1.970811e+00    1.462263e+00    1.137965e+00
   8.700830e-01    6.741384e-01    5.595213e-01    5.194962e-01    5.488366e-01
   6.515254e-01    8.354371e-01    1.094749e+00    1.408371e+00    1.852823e+00
   3.948930e+00    1.693940e+01    1.458335e+01    3.347788e+00    1.769953e+00
   1.356348e+00    1.044953e+00    7.915864e-01    6.183830e-01    5.284681e-01
   5.141455e-01    5.735126e-01    7.131437e-01    9.362504e-01    1.225579e+00
   1.577990e+00    2.344223e+00    7.986047e+00    1.883069e+01    6.307419e+00
   2.134464e+00    1.514313e+00    1.172071e+00    8.869876e-01    6.724661e-01
   1.060690e+00    8.705082e-01    7.637967e-01    7.430456e-01    8.078364e-01
   9.577236e-01    1.183138e+00    1.455393e+00    1.788909e+00    3.092606e+00
   2.819063e+01    1.913537e+02    2.133459e+01    2.758125e+00    1.730388e+00
   1.399544e+00    1.120757e+00    8.932500e-01    7.429579e-01    6.741633e-01
   6.835725e-01    7.710917e-01    9.383964e-01    1.175040e+00    1.455919e+00
   1.846884e+00    4.095935e+00    2.791077e+01    3.492499e+01    5.264855e+00
   1.898934e+00    1.401730e+00    1.075212e+00    8.066149e-01    6.198554e-01
   5.241600e-01    5.140625e-01    5.881315e-01    7.518522e-01    1.002910e+00
   1.315230e+00    1.700196e+00    2.980341e+00    1.990475e+01    6.344298e+01
   1.093520e+01    2.361080e+00    1.652255e+00    1.336393e+00    1.065663e+00
   8.514171e-01    7.170105e-01    6.661166e-01    6.977710e-01    8.142270e-01
   1.015354e+00    1.282406e+00    1.593376e+00    2.164447e+00    9.021039e+00
   1.107840e+02    5.956080e+01    4.935239e+00    1.964535e+00    1.573354e+00
   1.300890e+00    1.064745e+00    8.927304e-01    8.012635e-01    7.934759e-01
   8.699615e-01    1.029357e+00    1.259300e+00    1.528916e+00    1.857972e+00
   3.277693e+00    3.428728e+01    3.261166e+02    2.479190e+01    2.876788e+00
   1.801981e+00    1.481934e+00    1.210685e+00    9.851894e-01    8.358959e-01
   7.734469e-01    7.990230e-01    9.122264e-01    1.107901e+00    1.363305e+00
   1.653571e+00    2.169029e+00    8.596433e+00    1.417204e+02    9.895488e+01
   6.309139e+00    2.047856e+00    1.605179e+00    1.315399e+00    1.060730e+00
   1.522215e+00    1.301895e+00    1.140286e+00    1.065967e+00    1.090814e+00
   1.209511e+00    1.401413e+00    1.630391e+00    1.869464e+00    2.293786e+00
   7.716113e+00    1.099756e+02    9.038854e+01    6.463373e+00    2.217024e+00
   1.823609e+00    1.572848e+00    1.332837e+00    1.135232e+00    1.012210e+00
   9.785220e-01    1.036328e+00    1.177503e+00    1.383112e+00    1.620214e+00
   1.895567e+00    2.896183e+00    2.536456e+01    6.338400e+02    4.265838e+01
   3.484455e+00    1.837551e+00    1.486597e+00    1.204315e+00    9.692498e-01
   8.150099e-01    7.558405e-01    7.947446e-01    9.312567e-01    1.156037e+00
   1.437483e+00    1.746739e+00    2.330686e+00    1.093595e+01    2.365912e+02
   1.064631e+02    6.037586e+00    2.172336e+00    1.790266e+00    1.535239e+00
   1.295424e+00    1.104426e+00    9.935370e-01    9.775907e-01    1.059009e+00
   1.227455e+00    1.456891e+00    1.708523e+00    2.015478e+00    3.643034e+00
   3.922962e+01    2.384234e+02    1.885545e+01    2.798197e+00    1.996711e+00
   1.753366e+00    1.531352e+00    1.327937e+00    1.182403e+00    1.122241e+00
   1.159816e+00    1.288831e+00    1.485484e+00    1.710197e+00    1.935092e+00
   2.322689e+00    6.912319e+00    7.546460e+01    6.284852e+01    5.781453e+00
   2.254308e+00    1.900898e+00    1.669950e+00    1.440587e+00    1.246505e+00
   1.126837e+00    1.103974e+00    1.181930e+00    1.345490e+00    1.562881e+00
   1.792344e+00    2.054969e+00    3.208651e+00    2.521427e+01    1.418831e+02
   1.884871e+01    2.888793e+00    2.016335e+00    1.758974e+00    1.522256e+00
   1.926238e+00    1.749661e+00    1.578105e+00    1.462101e+00    1.435607e+00
   1.505830e+00    1.650474e+00    1.825715e+00    1.983929e+00    2.128512e+00
   2.536422e+00    6.344521e+00    1.451135e+01    5.873494e+00    2.478279e+00
   2.104347e+00    1.947279e+00    1.771087e+00    1.581047e+00    1.425140e+00
   1.344214e+00    1.359465e+00    1.464807e+00    1.631639e+00    1.818521e+00
   1.994443e+00    2.250050e+00    4.358628e+00    3.025919e+01    4.084868e+01
   5.874162e+00    2.234407e+00    1.854894e+00    1.619796e+00    1.390596e+00
   1.198916e+00    1.085321e+00    1.075340e+00    1.175297e+00    1.367246e+00
   1.610888e+00    1.854186e+00    2.106445e+00    2.973006e+00    1.384198e+01
   3.877998e+01    8.986892e+00    2.629536e+00    2.138918e+00    1.957159e+00
   1.764359e+00    1.564082e+00    1.406056e+00    1.331554e+00    1.361409e+00
   1.485504e+00    1.667304e+00    1.857405e+00    2.024925e+00    2.270214e+00
   4.036078e+00    1.433191e+01    1.125534e+01    3.224766e+00    2.244975e+00
   2.079351e+00    1.943230e+00    1.778537e+00    1.623406e+00    1.525778e+00
   1.513280e+00    1.588443e+00    1.731812e+00    1.899379e+00    2.040852e+00
   2.155567e+00    2.453782e+00    4.843914e+00    9.295493e+00    4.530002e+00
   2.415121e+00    2.144094e+00    2.021916e+00    1.869302e+00    1.694500e+00
   1.549559e+00    1.479005e+00    1.503428e+00    1.615626e+00    1.780082e+00
   1.945160e+00    2.075835e+00    2.239961e+00    3.209015e+00    8.601900e+00
   7.993470e+00    3.020156e+00    2.225574e+00    2.067852e+00    1.926265e+00
   2.106810e+00    2.059652e+00    1.979995e+00    1.940538e+00    1.965554e+00
   1.930348e+00    1.928903e+00    2.000780e+00    2.071476e+00    2.091667e+00
   2.081773e+00    2.158320e+00    2.510590e+00    2.498834e+00    2.156255e+00
   2.084385e+00    2.085148e+00    2.047512e+00    1.955850e+00    1.857040e+00
   1.807818e+00    1.796035e+00    1.805287e+00    1.883251e+00    1.995179e+00
   2.084648e+00    2.137312e+00    2.254848e+00    3.089462e+00    5.008641e+00
   3.463704e+00    2.246736e+00    2.026383e+00    1.912640e+00    1.770561e+00
   1.607791e+00    1.472595e+00    1.415578e+00    1.465772e+00    1.609424e+00
   1.799842e+00    1.977093e+00    2.096539e+00    2.193303e+00    2.555642e+00
   3.888424e+00    3.586193e+00    2.421215e+00    2.200288e+00    2.161309e+00
   2.095236e+00    1.977694e+00    1.858437e+00    1.792277e+00    1.771863e+00
   1.792560e+00    1.881685e+00    1.990347e+00    2.060685e+00    2.081119e+00
   2.126879e+00    2.433902e+00    2.771473e+00    2.341571e+00    2.129930e+00
   2.126549e+00    2.132413e+00    2.088205e+00    2.024527e+00    2.031903e+00
   2.143899e+00    2.087429e+00    2.020229e+00    2.060820e+00    2.109293e+00
   2.104657e+00    2.060995e+00    2.068432e+00    2.233469e+00    2.230082e+00
   2.075207e+00    2.072164e+00    2.110515e+00    2.104563e+00    2.044523e+00
   1.990968e+00    2.027449e+00    2.049206e+00    1.975238e+00    1.996319e+00
   2.063189e+00    2.097160e+00    2.075896e+00    2.055097e+00    2.169333e+00
   2.344837e+00    2.166242e+00    2.070693e+00    2.093887e+00    2.106810e+00
   1.975474e+00    2.086700e+00    2.173848e+00    2.470565e+00    4.142857e+00
   4.971100e+00    2.813603e+00    2.209614e+00    2.105629e+00    2.023866e+00
   1.898792e+00    1.759756e+00    1.659874e+00    1.630506e+00    1.670058e+00
   1.777046e+00    1.916581e+00    2.033550e+00    2.099657e+00    2.174556e+00
   2.584140e+00    3.632271e+00    3.013462e+00    2.261090e+00    2.136307e+00
   2.111999e+00    2.057628e+00    1.966944e+00    1.894858e+00    1.899352e+00
   1.901687e+00    1.868742e+00    1.901316e+00    1.949803e+00    1.957921e+00
   1.912734e+00    1.854368e+00    1.860516e+00    1.930091e+00    1.946652e+00
   2.001630e+00    2.076274e+00    2.099589e+00    2.043855e+00    1.948656e+00
   1.885545e+00    1.869802e+00    1.862648e+00    1.930213e+00    2.045110e+00
   2.136388e+00    2.172889e+00    2.221876e+00    2.598041e+00    3.465661e+00
   2.826972e+00    2.204168e+00    2.097085e+00    2.054773e+00    1.969400e+00
   1.844293e+00    1.730138e+00    1.672271e+00    1.674073e+00    1.741010e+00
   1.867784e+00    2.006442e+00    2.109894e+00    2.201685e+00    2.580435e+00
   5.204019e+00    7.144597e+00    3.343530e+00    2.283906e+00    2.122554e+00
   2.015687e+00    1.869430e+00    1.710440e+00    1.593343e+00    1.555748e+00
   1.604896e+00    1.729416e+00    1.890188e+00    2.032632e+00    2.132217e+00
   2.284075e+00    3.255322e+00    6.213428e+00    4.401365e+00    2.452493e+00
   2.157321e+00    2.063249e+00    1.945268e+00    1.792493e+00    1.653733e+00
   1.578159e+00    1.586277e+00    1.675800e+00    1.822529e+00    1.975453e+00
   1.597702e+00    1.816854e+00    2.033611e+00    2.537057e+00    9.212759e+00
   5.409107e+01    2.083339e+01    3.360637e+00    2.144830e+00    1.908119e+00
   1.706175e+00    1.500168e+00    1.330920e+00    1.237462e+00    1.243381e+00
   1.348263e+00    1.526824e+00    1.736603e+00    1.935132e+00    2.164906e+00
   3.329217e+00    1.610483e+01    2.820696e+01    5.969091e+00    2.411646e+00
   2.082657e+00    1.923606e+00    1.751058e+00    1.578813e+00    1.450345e+00
   1.399686e+00    1.440108e+00    1.556598e+00    1.712066e+00    1.861724e+00
   1.973618e+00    2.085903e+00    2.567033e+00    4.640796e+00    4.416427e+00
   2.564725e+00    2.186474e+00    2.066165e+00    1.918437e+00    1.724321e+00
   1.537088e+00    1.416718e+00    1.402790e+00    1.498461e+00    1.670942e+00
   1.867541e+00    2.043389e+00    2.255003e+00    3.496251e+00    1.619931e+01
   2.422254e+01    5.199882e+00    2.323917e+00    2.012603e+00    1.828063e+00
   1.627563e+00    1.436322e+00    1.299473e+00    1.249636e+00    1.299372e+00
   1.436079e+00    1.628150e+00    1.832456e+00    2.038159e+00    2.536949e+00
   9.997590e+00    8.245115e+01    3.277457e+01    3.898216e+00    2.157665e+00
   1.883433e+00    1.665239e+00    1.447882e+00    1.272061e+00    1.176181e+00
   1.181316e+00    1.286570e+00    1.469342e+00    1.689857e+00    1.907248e+00
   2.180846e+00    3.946730e+00    3.063589e+01    6.462752e+01    8.502564e+00
   2.452635e+00    1.996434e+00    1.780231e+00    1.563049e+00    1.363474e+00
   1.225734e+00    1.180716e+00    1.239804e+00    1.389853e+00    1.597668e+00
   1.135313e+00    1.380817e+00    1.655144e+00    2.035142e+00    5.089641e+00
   8.360512e+01    3.124378e+02    1.361193e+01    2.433868e+00    1.791595e+00
   1.510642e+00    1.259327e+00    1.053820e+00    9.242856e-01    8.835459e-01
   9.354339e-01    1.076859e+00    1.293332e+00    1.551186e+00    1.837214e+00
   2.564826e+00    1.621564e+01    3.421439e+02    6.410560e+01    4.454616e+00
   2.077785e+00    1.757759e+00    1.521817e+00    1.304568e+00    1.138262e+00
   1.049231e+00    1.050736e+00    1.142749e+00    1.310877e+00    1.527546e+00
   1.753771e+00    1.998465e+00    2.854660e+00    1.527546e+01    5.779598e+01
   1.248577e+01    2.731496e+00    2.032065e+00    1.774070e+00    1.520312e+00
   1.281090e+00    1.107780e+00    1.033507e+00    1.069280e+00    1.206103e+00
   1.417785e+00    1.662418e+00    1.932878e+00    2.725929e+00    1.877819e+01
   3.654547e+02    5.271036e+01    4.018775e+00    2.007947e+00    1.677326e+00
   1.417096e+00    1.181593e+00    1.006258e+00    9.128809e-01    9.087982e-01
   9.937530e-01    1.160552e+00    1.388733e+00    1.646864e+00    1.997527e+00
   4.469368e+00    6.455113e+01    3.022471e+02    1.533680e+01    2.486053e+00
   1.764264e+00    1.468802e+00    1.209477e+00    9.996780e-01    8.686726e-01
   8.268329e-01    8.760013e-01    1.013958e+00    1.229405e+00    1.491598e+00
   1.787620e+00    2.532454e+00    1.636424e+01    3.567892e+02    6.467658e+01
   4.403120e+00    1.975433e+00    1.615787e+00    1.345658e+00    1.108063e+00
   9.363989e-01    8.503779e-01    8.558035e-01    9.528783e-01    1.135279e+00
   7.300483e-01    9.385449e-01    1.215638e+00    1.543668e+00    2.149648e+00
   7.731432e+00    4.148518e+01    1.819499e+01    3.057056e+00    1.728289e+00
   1.359978e+00    1.069652e+00    8.343438e-01    6.777892e-01    6.039017e-01
   6.085142e-01    6.925883e-01    8.611212e-01    1.108090e+00    1.407115e+00
   1.798073e+00    3.660992e+00    3.058332e+01    7.081702e+01    9.048302e+00
   2.211200e+00    1.619344e+00    1.321013e+00    1.067053e+00    8.729376e-01
   7.576153e-01    7.230908e-01    7.683519e-01    8.943433e-01    1.098663e+00
   1.360430e+00    1.653443e+00    2.162524e+00    8.733425e+00    1.818136e+02
   1.425363e+02    7.277269e+00    2.112458e+00    1.644009e+00    1.339720e+00
   1.065636e+00    8.577538e-01    7.411088e-01    7.199731e-01    7.931452e-01
   9.577911e-01    1.198754e+00    1.485558e+00    1.872359e+00    4.086150e+00
   3.735230e+01    7.328624e+01    8.346947e+00    2.144169e+00    1.565175e+00
   1.248368e+00    9.778202e-01    7.730892e-01    6.502520e-01    6.065545e-01
   6.382872e-01    7.482418e-01    9.397798e-01    1.200252e+00    1.511755e+00
   2.027368e+00    5.595132e+00    2.491316e+01    1.417150e+01    2.972189e+00
   1.714131e+00    1.332114e+00    1.032934e+00    7.931655e-01    6.348502e-01
   5.598918e-01    5.621099e-01    6.415028e-01    8.040033e-01    1.046727e+00
   1.346050e+00    1.726291e+00    3.067806e+00    1.637099e+01    3.066976e+01
   6.218347e+00    2.049564e+00    1.503596e+00    1.182092e+00    9.123816e-01
   7.132720e-01    5.982864e-01    5.636303e-01    6.061563e-01    7.300213e-01
   4.438737e-01    5.901088e-01    8.244440e-01    1.136770e+00    1.518706e+00
   2.111669e+00    3.669677e+00    4.495437e+00    2.621505e+00    1.723896e+00
   1.293440e+00    9.604770e-01    6.957600e-01    5.151483e-01    4.167879e-01
   3.882641e-01    4.242516e-01    5.320839e-01    7.246699e-01    1.001203e+00
   1.343890e+00    1.808169e+00    3.120160e+00    6.581792e+00    4.768231e+00
   2.217854e+00    1.557043e+00    1.196939e+00    9.052891e-01    6.833971e-01
   5.443598e-01    4.822576e-01    4.879511e-01    5.614169e-01    7.114229e-01
   9.418853e-01    1.233596e+00    1.585076e+00    2.488664e+00    1.250595e+01
   4.473619e+01    1.118820e+01    2.372202e+00    1.565600e+00    1.213816e+00
   9.146625e-01    6.814198e-01    5.359932e-01    4.762610e-01    4.960060e-01
   5.975347e-01    7.872472e-01    1.057761e+00    1.389388e+00    1.853572e+00
   3.361717e+00    7.232662e+00    4.825950e+00    2.189443e+00    1.527654e+00
   1.154714e+00    8.506815e-01    6.198730e-01    4.740131e-01    4.039897e-01
   3.981490e-01    4.556732e-01    5.874661e-01    8.052383e-01    1.103596e+00
   1.472257e+00    1.989321e+00    3.020953e+00    3.635368e+00    2.492518e+00
   1.734369e+00    1.294047e+00    9.464202e-01    6.731558e-01    4.886685e-01
   3.884746e-01    3.579971e-01    3.903621e-01    4.921925e-01    6.775125e-01
   9.495851e-01    1.292320e+00    1.726278e+00    2.532684e+00    3.948397e+00
   3.256746e+00    2.027773e+00    1.479161e+00    1.104122e+00    7.991580e-01
   5.736213e-01    4.351380e-01    3.728009e-01    3.754726e-01    4.438582e-01
   2.714464e-01    3.610393e-01    5.316338e-01    8.002243e-01    1.161118e+00
   1.587215e+00    2.032085e+00    2.326360e+00    2.192230e+00    1.771654e+00
   1.330130e+00    9.445171e-01    6.406579e-01    4.328760e-01    3.128535e-01
   2.608366e-01    2.635306e-01    3.219792e-01    4.512463e-01    6.711475e-01
   9.866200e-01    1.380277e+00    1.836687e+00    2.306480e+00    2.448748e+00
   2.064646e+00    1.589759e+00    1.178678e+00    8.379339e-01    5.821552e-01
   4.182287e-01    3.331214e-01    3.096190e-01    3.404305e-01    4.318448e-01
   5.985388e-01    8.470172e-01    1.161935e+00    1.549438e+00    2.254565e+00
   4.040646e+00    3.974675e+00    2.224521e+00    1.553291e+00    1.164547e+00
   8.395400e-01    5.838092e-01    4.159005e-01    3.301481e-01    3.135796e-01
   3.631846e-01    4.895600e-01    7.077046e-01    1.017878e+00    1.401886e+00
   1.851500e+00    2.330254e+00    2.464229e+00    2.057412e+00    1.574542e+00
   1.156631e+00    8.087609e-01    5.472609e-01    3.788528e-01    2.887801e-01
   2.582081e-01    2.789134e-01    3.576125e-01    5.134956e-01    7.663746e-01
   1.117011e+00    1.540530e+00    1.981898e+00    2.280215e+00    2.200065e+00
   1.816544e+00    1.367125e+00    9.609223e-01    6.408961e-01    4.239837e-01
   2.994405e-01    2.447911e-01    2.447817e-01    2.991159e-01    4.223445e-01
   6.359644e-01    9.495649e-01    1.346009e+00    1.787580e+00    2.180886e+00
   2.284230e+00    1.991123e+00    1.549694e+00    1.126972e+00    7.735616e-01
   5.142386e-01    3.514364e-01    2.673407e-01    2.429967e-01    2.714383e-01
   1.813574e-01    2.308160e-01    3.443142e-01    5.491241e-01    8.667358e-01
   1.283756e+00    1.728606e+00    2.063722e+00    2.127500e+00    1.881193e+00
   1.460043e+00    1.023689e+00    6.664385e-01    4.202066e-01    2.740647e-01
   2.012306e-01    1.806489e-01    2.054389e-01    2.843121e-01    4.398038e-01
   6.982299e-01    1.066176e+00    1.506154e+00    1.922358e+00    2.152658e+00
   2.061198e+00    1.708408e+00    1.269537e+00    8.693542e-01    5.658566e-01
   3.693309e-01    2.603656e-01    2.138345e-01    2.143912e-01    2.608076e-01
   3.650242e-01    5.458370e-01    8.133160e-01    1.155652e+00    1.550470e+00
   1.953400e+00    2.169596e+00    1.985016e+00    1.601063e+00    1.202283e+00
   8.423743e-01    5.571216e-01    3.651180e-01    2.576960e-01    2.162416e-01
   2.304354e-01    3.053135e-01    4.602796e-01    7.182050e-01    1.082392e+00
   1.514974e+00    1.923410e+00    2.147840e+00    2.052081e+00    1.697314e+00
   1.257363e+00    8.553649e-01    5.497328e-01    3.512333e-01    2.400410e-01
   1.904495e-01    1.869012e-01    2.287490e-01    3.308000e-01    5.203715e-01
   8.233373e-01    1.235296e+00    1.692199e+00    2.057925e+00    2.164447e+00
   1.950431e+00    1.531386e+00    1.075199e+00    6.946196e-01    4.313414e-01
   2.752990e-01    1.972167e-01    1.735294e-01    1.956140e-01    2.710927e-01
   4.223310e-01    6.774788e-01    1.046667e+00    1.491524e+00    1.907194e+00
   2.132231e+00    2.044597e+00    1.694615e+00    1.246633e+00    8.360039e-01
   5.285532e-01    3.326261e-01    2.251818e-01    1.797135e-01    1.813547e-01
   1.462391e-01    1.688993e-01    2.421485e-01    3.899039e-01    6.443505e-01
   1.021239e+00    1.479417e+00    1.896815e+00    2.107174e+00    2.007764e+00
   1.649192e+00    1.189455e+00    7.748168e-01    4.750375e-01    2.906852e-01
   1.920643e-01    1.508118e-01    1.522134e-01    1.970284e-01    3.015237e-01