phonopy:
  version: "2.26.6"
  calculator: crystal
  frequency_unit_conversion_factor: 15.633302
  symmetry_tolerance: 1.00000e-05
  configuration:
    cell_filename: "ha_paracetamolG.out"
    qpoints: "0 0 0"
    dim: "1 1 1"
    calculator: "crystal"
    read_force_constants: ".true."

physical_unit:
  atomic_mass: "AMU"
  length: "angstrom"
  force_constants: "eV/angstrom^2"

space_group:
  type: "P2_1/c"
  number: 14
  Hall_symbol: "-P 2ybc"

supercell_matrix:
- [   1,   0,   0 ]
- [   0,   1,   0 ]
- [   0,   0,   1 ]

primitive_cell:
  lattice:
  - [     7.162932427780000,     0.000000000000000,    -0.031788586171200 ] # a
  - [     0.000000000000000,     9.276183443350000,    -0.000000000000000 ] # b
  - [    -5.577305391940000,     0.000000000000001,    11.376939522700001 ] # c
  points:
  - symbol: O  # 1
    coordinates: [  0.055847983043010,  0.430591025804800,  0.713290433910400 ]
    mass: 15.999400
  - symbol: O  # 2
    coordinates: [  0.944152016954930,  0.930591025805380,  0.786709566086900 ]
    mass: 15.999400
  - symbol: O  # 3
    coordinates: [  0.944152016956990,  0.569408974195200,  0.286709566089600 ]
    mass: 15.999400
  - symbol: O  # 4
    coordinates: [  0.055847983040950,  0.069408974195690,  0.213290433907800 ]
    mass: 15.999400
  - symbol: O  # 5
    coordinates: [  0.453953975962500,  0.998110495923023,  0.302572951177300 ]
    mass: 15.999400
  - symbol: O  # 6
    coordinates: [  0.546046024035500,  0.498110495923600,  0.197427048820100 ]
    mass: 15.999400
  - symbol: O  # 7
    coordinates: [  0.546046024037500,  0.001889504076977,  0.697427048822700 ]
    mass: 15.999400
  - symbol: O  # 8
    coordinates: [  0.453953975960400,  0.501889504077500,  0.802572951174600 ]
    mass: 15.999400
  - symbol: N  # 9
    coordinates: [  0.787998412173400,  0.043337981543500,  0.340210576489700 ]
    mass: 14.006700
  - symbol: N  # 10
    coordinates: [  0.212001587824600,  0.543337981544000,  0.159789423507700 ]
    mass: 14.006700
  - symbol: N  # 11
    coordinates: [  0.212001587826600,  0.956662018456500,  0.659789423510300 ]
    mass: 14.006700
  - symbol: N  # 12
    coordinates: [  0.787998412171300,  0.456662018457000,  0.840210576487000 ]
    mass: 14.006700
  - symbol: C  # 13
    coordinates: [  0.850415764995400,  0.138118990587500,  0.436523096732700 ]
    mass: 12.010700
  - symbol: C  # 14
    coordinates: [  0.149584235002600,  0.638118990588000,  0.063476903264650 ]
    mass: 12.010700
  - symbol: C  # 15
    coordinates: [  0.149584235004600,  0.861881009412500,  0.563476903267300 ]
    mass: 12.010700
  - symbol: C  # 16
    coordinates: [  0.850415764993300,  0.361881009413000,  0.936523096730060 ]
    mass: 12.010700
  - symbol: C  # 17
    coordinates: [  0.762397263096400,  0.142163163323900,  0.514672522114300 ]
    mass: 12.010700
  - symbol: C  # 18
    coordinates: [  0.237602736901500,  0.642163163324400,  0.985327477883100 ]
    mass: 12.010700
  - symbol: C  # 19
    coordinates: [  0.237602736903600,  0.857836836676100,  0.485327477885700 ]
    mass: 12.010700
  - symbol: C  # 20
    coordinates: [  0.762397263094400,  0.357836836676700,  0.014672522111620 ]
    mass: 12.010700
  - symbol: C  # 21
    coordinates: [  0.833742099330300,  0.240150552524600,  0.606956637518600 ]
    mass: 12.010700
  - symbol: C  # 22
    coordinates: [  0.166257900667600,  0.740150552525100,  0.893043362478700 ]
    mass: 12.010700
  - symbol: C  # 23
    coordinates: [  0.166257900669700,  0.759849447475400,  0.393043362481400 ]
    mass: 12.010700
  - symbol: C  # 24
    coordinates: [  0.833742099328300,  0.259849447475900,  0.106956637516000 ]
    mass: 12.010700
  - symbol: C  # 25
    coordinates: [  0.995163362369131,  0.335032635302100,  0.624008916208300 ]
    mass: 12.010700
  - symbol: C  # 26
    coordinates: [  0.004836637628811,  0.835032635302600,  0.875991083789000 ]
    mass: 12.010700
  - symbol: C  # 27
    coordinates: [  0.004836637630869,  0.664967364697900,  0.375991083791700 ]
    mass: 12.010700
  - symbol: C  # 28
    coordinates: [  0.995163362367073,  0.164967364698500,  0.124008916205700 ]
    mass: 12.010700
  - symbol: C  # 29
    coordinates: [  0.086370551740370,  0.328555378364800,  0.547350203980800 ]
    mass: 12.010700
  - symbol: C  # 30
    coordinates: [  0.913629448257570,  0.828555378365300,  0.952649796016590 ]
    mass: 12.010700
  - symbol: C  # 31
    coordinates: [  0.913629448259630,  0.671444621635200,  0.452649796019200 ]
    mass: 12.010700
  - symbol: C  # 32
    coordinates: [  0.086370551738320,  0.171444621635800,  0.047350203978120 ]
    mass: 12.010700
  - symbol: C  # 33
    coordinates: [  0.014056601897960,  0.231561073011000,  0.454906065027400 ]
    mass: 12.010700
  - symbol: C  # 34
    coordinates: [  0.985943398099980,  0.731561073011500,  0.045093934970000 ]
    mass: 12.010700
  - symbol: C  # 35
    coordinates: [  0.985943398102040,  0.768438926989000,  0.545093934972600 ]
    mass: 12.010700
  - symbol: C  # 36
    coordinates: [  0.014056601895900,  0.268438926989500,  0.954906065024720 ]
    mass: 12.010700
  - symbol: C  # 37
    coordinates: [  0.600958032469100,  0.982858690324740,  0.277899484805600 ]
    mass: 12.010700
  - symbol: C  # 38
    coordinates: [  0.399041967528900,  0.482858690325300,  0.222100515191800 ]
    mass: 12.010700
  - symbol: C  # 39
    coordinates: [  0.399041967530900,  0.017141309675260,  0.722100515194400 ]
    mass: 12.010700
  - symbol: C  # 40
    coordinates: [  0.600958032467000,  0.517141309675800,  0.777899484802900 ]
    mass: 12.010700
  - symbol: C  # 41
    coordinates: [  0.581576188326800,  0.893058977558500,  0.174845706354000 ]
    mass: 12.010700
  - symbol: C  # 42
    coordinates: [  0.418423811671100,  0.393058977559000,  0.325154293643300 ]
    mass: 12.010700
  - symbol: C  # 43
    coordinates: [  0.418423811673200,  0.106941022441500,  0.825154293646000 ]
    mass: 12.010700
  - symbol: C  # 44
    coordinates: [  0.581576188324800,  0.606941022442100,  0.674845706351400 ]
    mass: 12.010700
  - symbol: H  # 45
    coordinates: [  0.638387398754100,  0.069762710224640,  0.505313600351700 ]
    mass: 1.007940
  - symbol: H  # 46
    coordinates: [  0.361612601243800,  0.569762710225200,  0.994686399645691 ]
    mass: 1.007940
  - symbol: H  # 47
    coordinates: [  0.361612601245900,  0.930237289775360,  0.494686399648300 ]
    mass: 1.007940
  - symbol: H  # 48
    coordinates: [  0.638387398752100,  0.430237289775900,  0.005313600349024 ]
    mass: 1.007940
  - symbol: H  # 49
    coordinates: [  0.762404271250600,  0.241348515186600,  0.666480195411300 ]
    mass: 1.007940
  - symbol: H  # 50
    coordinates: [  0.237595728747400,  0.741348515187100,  0.833519804586000 ]
    mass: 1.007940
  - symbol: H  # 51
    coordinates: [  0.237595728749400,  0.758651484813400,  0.333519804588700 ]
    mass: 1.007940
  - symbol: H  # 52
    coordinates: [  0.762404271248500,  0.258651484813900,  0.166480195408700 ]
    mass: 1.007940
  - symbol: H  # 53
    coordinates: [  0.212179817508700,  0.400798429387500,  0.558164562115400 ]
    mass: 1.007940
  - symbol: H  # 54
    coordinates: [  0.787820182489300,  0.900798429388040,  0.941835437881940 ]
    mass: 1.007940
  - symbol: H  # 55
    coordinates: [  0.787820182491300,  0.599201570612500,  0.441835437884600 ]
    mass: 1.007940
  - symbol: H  # 56
    coordinates: [  0.212179817506600,  0.099201570613040,  0.058164562112780 ]
    mass: 1.007940
  - symbol: H  # 57
    coordinates: [  0.087074881191220,  0.228514916377200,  0.396252018148300 ]
    mass: 1.007940
  - symbol: H  # 58
    coordinates: [  0.912925118806730,  0.728514916377800,  0.103747981849100 ]
    mass: 1.007940
  - symbol: H  # 59
    coordinates: [  0.912925118808780,  0.771485083622800,  0.603747981851700 ]
    mass: 1.007940
  - symbol: H  # 60
    coordinates: [  0.087074881189160,  0.271485083623300,  0.896252018145700 ]
    mass: 1.007940
  - symbol: H  # 61
    coordinates: [  0.195704206206700,  0.469815980513900,  0.734557333556400 ]
    mass: 1.007940
  - symbol: H  # 62
    coordinates: [  0.804295793791200,  0.969815980514410,  0.765442666440900 ]
    mass: 1.007940
  - symbol: H  # 63
    coordinates: [  0.804295793793300,  0.530184019486100,  0.265442666443600 ]
    mass: 1.007940
  - symbol: H  # 64
    coordinates: [  0.195704206204700,  0.030184019486670,  0.234557333553800 ]
    mass: 1.007940
  - symbol: H  # 65
    coordinates: [  0.894828256831000,  0.028199002439580,  0.309181677459800 ]
    mass: 1.007940
  - symbol: H  # 66
    coordinates: [  0.105171743166900,  0.528199002440100,  0.190818322537500 ]
    mass: 1.007940
  - symbol: H  # 67
    coordinates: [  0.105171743169000,  0.971800997560420,  0.690818322540200 ]
    mass: 1.007940
  - symbol: H  # 68
    coordinates: [  0.894828256829000,  0.471800997561000,  0.809181677457200 ]
    mass: 1.007940
  - symbol: H  # 69
    coordinates: [  0.433751144097200,  0.914723493616320,  0.098645197822030 ]
    mass: 1.007940
  - symbol: H  # 70
    coordinates: [  0.566248855900700,  0.414723493616900,  0.401354802175300 ]
    mass: 1.007940
  - symbol: H  # 71
    coordinates: [  0.566248855902800,  0.085276506383680,  0.901354802177970 ]
    mass: 1.007940
  - symbol: H  # 72
    coordinates: [  0.433751144095200,  0.585276506384200,  0.598645197819400 ]
    mass: 1.007940
  - symbol: H  # 73
    coordinates: [  0.707997794883400,  0.910344941141910,  0.150792429822100 ]
    mass: 1.007940
  - symbol: H  # 74
    coordinates: [  0.292002205114600,  0.410344941142400,  0.349207570175200 ]
    mass: 1.007940
  - symbol: H  # 75
    coordinates: [  0.292002205116600,  0.089655058858090,  0.849207570177900 ]
    mass: 1.007940
  - symbol: H  # 76
    coordinates: [  0.707997794881300,  0.589655058858600,  0.650792429819500 ]
    mass: 1.007940
  - symbol: H  # 77
    coordinates: [  0.579507334395100,  0.779201898739500,  0.195287889088600 ]
    mass: 1.007940
  - symbol: H  # 78
    coordinates: [  0.420492665602900,  0.279201898740000,  0.304712110908700 ]
    mass: 1.007940
  - symbol: H  # 79
    coordinates: [  0.420492665604900,  0.220798101260500,  0.804712110911400 ]
    mass: 1.007940
  - symbol: H  # 80
    coordinates: [  0.579507334393000,  0.720798101261100,  0.695287889086000 ]
    mass: 1.007940
  reciprocal_lattice: # without 2pi
  - [     0.139912019984858,    -0.000000000000000,     0.068588926037780 ] # a*
  - [    -0.000000000000000,     0.107802956475261,    -0.000000000000000 ] # b*
  - [     0.000390931611687,     0.000000000000000,     0.088088746801029 ] # c*

unit_cell:
  lattice:
  - [     7.162932427780000,     0.000000000000000,    -0.031788586171200 ] # a
  - [     0.000000000000000,     9.276183443350000,    -0.000000000000000 ] # b
  - [    -5.577305391940000,     0.000000000000001,    11.376939522700001 ] # c
  points:
  - symbol: O  # 1
    coordinates: [  0.055847983043010,  0.430591025804800, -0.286709566089600 ]
    mass: 15.999400
    reduced_to: 1
  - symbol: O  # 2
    coordinates: [ -0.055847983045070, -0.069408974194620, -0.213290433913100 ]
    mass: 15.999400
    reduced_to: 2
  - symbol: O  # 3
    coordinates: [ -0.055847983043010, -0.430591025804800,  0.286709566089600 ]
    mass: 15.999400
    reduced_to: 3
  - symbol: O  # 4
    coordinates: [  0.055847983040950,  0.069408974195690,  0.213290433907800 ]
    mass: 15.999400
    reduced_to: 4
  - symbol: O  # 5
    coordinates: [  0.453953975962500, -0.001889504076977,  0.302572951177300 ]
    mass: 15.999400
    reduced_to: 5
  - symbol: O  # 6
    coordinates: [ -0.453953975964500,  0.498110495923600,  0.197427048820100 ]
    mass: 15.999400
    reduced_to: 6
  - symbol: O  # 7
    coordinates: [ -0.453953975962500,  0.001889504076977, -0.302572951177300 ]
    mass: 15.999400
    reduced_to: 7
  - symbol: O  # 8
    coordinates: [  0.453953975960400, -0.498110495922500, -0.197427048825400 ]
    mass: 15.999400
    reduced_to: 8
  - symbol: N  # 9
    coordinates: [ -0.212001587826600,  0.043337981543500,  0.340210576489700 ]
    mass: 14.006700
    reduced_to: 9
  - symbol: N  # 10
    coordinates: [  0.212001587824600, -0.456662018456000,  0.159789423507700 ]
    mass: 14.006700
    reduced_to: 10
  - symbol: N  # 11
    coordinates: [  0.212001587826600, -0.043337981543500, -0.340210576489700 ]
    mass: 14.006700
    reduced_to: 11
  - symbol: N  # 12
    coordinates: [ -0.212001587828700,  0.456662018457000, -0.159789423513000 ]
    mass: 14.006700
    reduced_to: 12
  - symbol: C  # 13
    coordinates: [ -0.149584235004600,  0.138118990587500,  0.436523096732700 ]
    mass: 12.010700
    reduced_to: 13
  - symbol: C  # 14
    coordinates: [  0.149584235002600, -0.361881009412000,  0.063476903264650 ]
    mass: 12.010700
    reduced_to: 14
  - symbol: C  # 15
    coordinates: [  0.149584235004600, -0.138118990587500, -0.436523096732700 ]
    mass: 12.010700
    reduced_to: 15
  - symbol: C  # 16
    coordinates: [ -0.149584235006700,  0.361881009413000, -0.063476903269940 ]
    mass: 12.010700
    reduced_to: 16
  - symbol: C  # 17
    coordinates: [ -0.237602736903600,  0.142163163323900, -0.485327477885700 ]
    mass: 12.010700
    reduced_to: 17
  - symbol: C  # 18
    coordinates: [  0.237602736901500, -0.357836836675600, -0.014672522116900 ]
    mass: 12.010700
    reduced_to: 18
  - symbol: C  # 19
    coordinates: [  0.237602736903600, -0.142163163323900,  0.485327477885700 ]
    mass: 12.010700
    reduced_to: 19
  - symbol: C  # 20
    coordinates: [ -0.237602736905600,  0.357836836676700,  0.014672522111620 ]
    mass: 12.010700
    reduced_to: 20
  - symbol: C  # 21
    coordinates: [ -0.166257900669700,  0.240150552524600, -0.393043362481400 ]
    mass: 12.010700
    reduced_to: 21
  - symbol: C  # 22
    coordinates: [  0.166257900667600, -0.259849447474900, -0.106956637521300 ]
    mass: 12.010700
    reduced_to: 22
  - symbol: C  # 23
    coordinates: [  0.166257900669700, -0.240150552524600,  0.393043362481400 ]
    mass: 12.010700
    reduced_to: 23
  - symbol: C  # 24
    coordinates: [ -0.166257900671700,  0.259849447475900,  0.106956637516000 ]
    mass: 12.010700
    reduced_to: 24
  - symbol: C  # 25
    coordinates: [ -0.004836637630869,  0.335032635302100, -0.375991083791700 ]
    mass: 12.010700
    reduced_to: 25
  - symbol: C  # 26
    coordinates: [  0.004836637628811, -0.164967364697400, -0.124008916211000 ]
    mass: 12.010700
    reduced_to: 26
  - symbol: C  # 27
    coordinates: [  0.004836637630869, -0.335032635302100,  0.375991083791700 ]
    mass: 12.010700
    reduced_to: 27
  - symbol: C  # 28
    coordinates: [ -0.004836637632927,  0.164967364698500,  0.124008916205700 ]
    mass: 12.010700
    reduced_to: 28
  - symbol: C  # 29
    coordinates: [  0.086370551740370,  0.328555378364800, -0.452649796019200 ]
    mass: 12.010700
    reduced_to: 29
  - symbol: C  # 30
    coordinates: [ -0.086370551742430, -0.171444621634700, -0.047350203983410 ]
    mass: 12.010700
    reduced_to: 30
  - symbol: C  # 31
    coordinates: [ -0.086370551740370, -0.328555378364800,  0.452649796019200 ]
    mass: 12.010700
    reduced_to: 31
  - symbol: C  # 32
    coordinates: [  0.086370551738320,  0.171444621635800,  0.047350203978120 ]
    mass: 12.010700
    reduced_to: 32
  - symbol: C  # 33
    coordinates: [  0.014056601897960,  0.231561073011000,  0.454906065027400 ]
    mass: 12.010700
    reduced_to: 33
  - symbol: C  # 34
    coordinates: [ -0.014056601900020, -0.268438926988500,  0.045093934970000 ]
    mass: 12.010700
    reduced_to: 34
  - symbol: C  # 35
    coordinates: [ -0.014056601897960, -0.231561073011000, -0.454906065027400 ]
    mass: 12.010700
    reduced_to: 35
  - symbol: C  # 36
    coordinates: [  0.014056601895900,  0.268438926989500, -0.045093934975280 ]
    mass: 12.010700
    reduced_to: 36
  - symbol: C  # 37
    coordinates: [ -0.399041967530900, -0.017141309675260,  0.277899484805600 ]
    mass: 12.010700
    reduced_to: 37
  - symbol: C  # 38
    coordinates: [  0.399041967528900,  0.482858690325300,  0.222100515191800 ]
    mass: 12.010700
    reduced_to: 38
  - symbol: C  # 39
    coordinates: [  0.399041967530900,  0.017141309675260, -0.277899484805600 ]
    mass: 12.010700
    reduced_to: 39
  - symbol: C  # 40
    coordinates: [ -0.399041967533000, -0.482858690324200, -0.222100515197100 ]
    mass: 12.010700
    reduced_to: 40
  - symbol: C  # 41
    coordinates: [ -0.418423811673200, -0.106941022441500,  0.174845706354000 ]
    mass: 12.010700
    reduced_to: 41
  - symbol: C  # 42
    coordinates: [  0.418423811671100,  0.393058977559000,  0.325154293643300 ]
    mass: 12.010700
    reduced_to: 42
  - symbol: C  # 43
    coordinates: [  0.418423811673200,  0.106941022441500, -0.174845706354000 ]
    mass: 12.010700
    reduced_to: 43
  - symbol: C  # 44
    coordinates: [ -0.418423811675200, -0.393058977557900, -0.325154293648600 ]
    mass: 12.010700
    reduced_to: 44
  - symbol: H  # 45
    coordinates: [ -0.361612601245900,  0.069762710224640, -0.494686399648300 ]
    mass: 1.007940
    reduced_to: 45
  - symbol: H  # 46
    coordinates: [  0.361612601243800, -0.430237289774800, -0.005313600354309 ]
    mass: 1.007940
    reduced_to: 46
  - symbol: H  # 47
    coordinates: [  0.361612601245900, -0.069762710224640,  0.494686399648300 ]
    mass: 1.007940
    reduced_to: 47
  - symbol: H  # 48
    coordinates: [ -0.361612601247900,  0.430237289775900,  0.005313600349024 ]
    mass: 1.007940
    reduced_to: 48
  - symbol: H  # 49
    coordinates: [ -0.237595728749400,  0.241348515186600, -0.333519804588700 ]
    mass: 1.007940
    reduced_to: 49
  - symbol: H  # 50
    coordinates: [  0.237595728747400, -0.258651484812900, -0.166480195414000 ]
    mass: 1.007940
    reduced_to: 50
  - symbol: H  # 51
    coordinates: [  0.237595728749400, -0.241348515186600,  0.333519804588700 ]
    mass: 1.007940
    reduced_to: 51
  - symbol: H  # 52
    coordinates: [ -0.237595728751500,  0.258651484813900,  0.166480195408700 ]
    mass: 1.007940
    reduced_to: 52
  - symbol: H  # 53
    coordinates: [  0.212179817508700,  0.400798429387500, -0.441835437884600 ]
    mass: 1.007940
    reduced_to: 53
  - symbol: H  # 54
    coordinates: [ -0.212179817510700, -0.099201570611960, -0.058164562118060 ]
    mass: 1.007940
    reduced_to: 54
  - symbol: H  # 55
    coordinates: [ -0.212179817508700, -0.400798429387500,  0.441835437884600 ]
    mass: 1.007940
    reduced_to: 55
  - symbol: H  # 56
    coordinates: [  0.212179817506600,  0.099201570613040,  0.058164562112780 ]
    mass: 1.007940
    reduced_to: 56
  - symbol: H  # 57
    coordinates: [  0.087074881191220,  0.228514916377200,  0.396252018148300 ]
    mass: 1.007940
    reduced_to: 57
  - symbol: H  # 58
    coordinates: [ -0.087074881193270, -0.271485083622200,  0.103747981849100 ]
    mass: 1.007940
    reduced_to: 58
  - symbol: H  # 59
    coordinates: [ -0.087074881191220, -0.228514916377200, -0.396252018148300 ]
    mass: 1.007940
    reduced_to: 59
  - symbol: H  # 60
    coordinates: [  0.087074881189160,  0.271485083623300, -0.103747981854300 ]
    mass: 1.007940
    reduced_to: 60
  - symbol: H  # 61
    coordinates: [  0.195704206206700,  0.469815980513900, -0.265442666443600 ]
    mass: 1.007940
    reduced_to: 61
  - symbol: H  # 62
    coordinates: [ -0.195704206208800, -0.030184019485590, -0.234557333559100 ]
    mass: 1.007940
    reduced_to: 62
  - symbol: H  # 63
    coordinates: [ -0.195704206206700, -0.469815980513900,  0.265442666443600 ]
    mass: 1.007940
    reduced_to: 63
  - symbol: H  # 64
    coordinates: [  0.195704206204700,  0.030184019486670,  0.234557333553800 ]
    mass: 1.007940
    reduced_to: 64
  - symbol: H  # 65
    coordinates: [ -0.105171743169000,  0.028199002439580,  0.309181677459800 ]
    mass: 1.007940
    reduced_to: 65
  - symbol: H  # 66
    coordinates: [  0.105171743166900, -0.471800997559900,  0.190818322537500 ]
    mass: 1.007940
    reduced_to: 66
  - symbol: H  # 67
    coordinates: [  0.105171743169000, -0.028199002439580, -0.309181677459800 ]
    mass: 1.007940
    reduced_to: 67
  - symbol: H  # 68
    coordinates: [ -0.105171743171000,  0.471800997561000, -0.190818322542800 ]
    mass: 1.007940
    reduced_to: 68
  - symbol: H  # 69
    coordinates: [  0.433751144097200, -0.085276506383680,  0.098645197822030 ]
    mass: 1.007940
    reduced_to: 69
  - symbol: H  # 70
    coordinates: [ -0.433751144099300,  0.414723493616900,  0.401354802175300 ]
    mass: 1.007940
    reduced_to: 70
  - symbol: H  # 71
    coordinates: [ -0.433751144097200,  0.085276506383680, -0.098645197822030 ]
    mass: 1.007940
    reduced_to: 71
  - symbol: H  # 72
    coordinates: [  0.433751144095200, -0.414723493615800, -0.401354802180600 ]
    mass: 1.007940
    reduced_to: 72
  - symbol: H  # 73
    coordinates: [ -0.292002205116600, -0.089655058858090,  0.150792429822100 ]
    mass: 1.007940
    reduced_to: 73
  - symbol: H  # 74
    coordinates: [  0.292002205114600,  0.410344941142400,  0.349207570175200 ]
    mass: 1.007940
    reduced_to: 74
  - symbol: H  # 75
    coordinates: [  0.292002205116600,  0.089655058858090, -0.150792429822100 ]
    mass: 1.007940
    reduced_to: 75
  - symbol: H  # 76
    coordinates: [ -0.292002205118700, -0.410344941141400, -0.349207570180500 ]
    mass: 1.007940
    reduced_to: 76
  - symbol: H  # 77
    coordinates: [ -0.420492665604900, -0.220798101260500,  0.195287889088600 ]
    mass: 1.007940
    reduced_to: 77
  - symbol: H  # 78
    coordinates: [  0.420492665602900,  0.279201898740000,  0.304712110908700 ]
    mass: 1.007940
    reduced_to: 78
  - symbol: H  # 79
    coordinates: [  0.420492665604900,  0.220798101260500, -0.195287889088600 ]
    mass: 1.007940
    reduced_to: 79
  - symbol: H  # 80
    coordinates: [ -0.420492665607000, -0.279201898738900, -0.304712110914000 ]
    mass: 1.007940
    reduced_to: 80

supercell:
  lattice:
  - [     7.162932427780000,     0.000000000000000,    -0.031788586171200 ] # a
  - [     0.000000000000000,     9.276183443350000,    -0.000000000000000 ] # b
  - [    -5.577305391940000,     0.000000000000001,    11.376939522700001 ] # c
  points:
  - symbol: O  # 1
    coordinates: [  0.055847983043010,  0.430591025804800,  0.713290433910400 ]
    mass: 15.999400
    reduced_to: 1
  - symbol: O  # 2
    coordinates: [  0.944152016954930,  0.930591025805380,  0.786709566086900 ]
    mass: 15.999400
    reduced_to: 2
  - symbol: O  # 3
    coordinates: [  0.944152016956990,  0.569408974195200,  0.286709566089600 ]
    mass: 15.999400
    reduced_to: 3
  - symbol: O  # 4
    coordinates: [  0.055847983040950,  0.069408974195690,  0.213290433907800 ]
    mass: 15.999400
    reduced_to: 4
  - symbol: O  # 5
    coordinates: [  0.453953975962500,  0.998110495923023,  0.302572951177300 ]
    mass: 15.999400
    reduced_to: 5
  - symbol: O  # 6
    coordinates: [  0.546046024035500,  0.498110495923600,  0.197427048820100 ]
    mass: 15.999400
    reduced_to: 6
  - symbol: O  # 7
    coordinates: [  0.546046024037500,  0.001889504076977,  0.697427048822700 ]
    mass: 15.999400
    reduced_to: 7
  - symbol: O  # 8
    coordinates: [  0.453953975960400,  0.501889504077500,  0.802572951174600 ]
    mass: 15.999400
    reduced_to: 8
  - symbol: N  # 9
    coordinates: [  0.787998412173400,  0.043337981543500,  0.340210576489700 ]
    mass: 14.006700
    reduced_to: 9
  - symbol: N  # 10
    coordinates: [  0.212001587824600,  0.543337981544000,  0.159789423507700 ]
    mass: 14.006700
    reduced_to: 10
  - symbol: N  # 11
    coordinates: [  0.212001587826600,  0.956662018456500,  0.659789423510300 ]
    mass: 14.006700
    reduced_to: 11
  - symbol: N  # 12
    coordinates: [  0.787998412171300,  0.456662018457000,  0.840210576487000 ]
    mass: 14.006700
    reduced_to: 12
  - symbol: C  # 13
    coordinates: [  0.850415764995400,  0.138118990587500,  0.436523096732700 ]
    mass: 12.010700
    reduced_to: 13
  - symbol: C  # 14
    coordinates: [  0.149584235002600,  0.638118990588000,  0.063476903264650 ]
    mass: 12.010700
    reduced_to: 14
  - symbol: C  # 15
    coordinates: [  0.149584235004600,  0.861881009412500,  0.563476903267300 ]
    mass: 12.010700
    reduced_to: 15
  - symbol: C  # 16
    coordinates: [  0.850415764993300,  0.361881009413000,  0.936523096730060 ]
    mass: 12.010700
    reduced_to: 16
  - symbol: C  # 17
    coordinates: [  0.762397263096400,  0.142163163323900,  0.514672522114300 ]
    mass: 12.010700
    reduced_to: 17
  - symbol: C  # 18
    coordinates: [  0.237602736901500,  0.642163163324400,  0.985327477883100 ]
    mass: 12.010700
    reduced_to: 18
  - symbol: C  # 19
    coordinates: [  0.237602736903600,  0.857836836676100,  0.485327477885700 ]
    mass: 12.010700
    reduced_to: 19
  - symbol: C  # 20
    coordinates: [  0.762397263094400,  0.357836836676700,  0.014672522111620 ]
    mass: 12.010700
    reduced_to: 20
  - symbol: C  # 21
    coordinates: [  0.833742099330300,  0.240150552524600,  0.606956637518600 ]
    mass: 12.010700
    reduced_to: 21
  - symbol: C  # 22
    coordinates: [  0.166257900667600,  0.740150552525100,  0.893043362478700 ]
    mass: 12.010700
    reduced_to: 22
  - symbol: C  # 23
    coordinates: [  0.166257900669700,  0.759849447475400,  0.393043362481400 ]
    mass: 12.010700
    reduced_to: 23
  - symbol: C  # 24
    coordinates: [  0.833742099328300,  0.259849447475900,  0.106956637516000 ]
    mass: 12.010700
    reduced_to: 24
  - symbol: C  # 25
    coordinates: [  0.995163362369131,  0.335032635302100,  0.624008916208300 ]
    mass: 12.010700
    reduced_to: 25
  - symbol: C  # 26
    coordinates: [  0.004836637628811,  0.835032635302600,  0.875991083789000 ]
    mass: 12.010700
    reduced_to: 26
  - symbol: C  # 27
    coordinates: [  0.004836637630869,  0.664967364697900,  0.375991083791700 ]
    mass: 12.010700
    reduced_to: 27
  - symbol: C  # 28
    coordinates: [  0.995163362367073,  0.164967364698500,  0.124008916205700 ]
    mass: 12.010700
    reduced_to: 28
  - symbol: C  # 29
    coordinates: [  0.086370551740370,  0.328555378364800,  0.547350203980800 ]
    mass: 12.010700
    reduced_to: 29
  - symbol: C  # 30
    coordinates: [  0.913629448257570,  0.828555378365300,  0.952649796016590 ]
    mass: 12.010700
    reduced_to: 30
  - symbol: C  # 31
    coordinates: [  0.913629448259630,  0.671444621635200,  0.452649796019200 ]
    mass: 12.010700
    reduced_to: 31
  - symbol: C  # 32
    coordinates: [  0.086370551738320,  0.171444621635800,  0.047350203978120 ]
    mass: 12.010700
    reduced_to: 32
  - symbol: C  # 33
    coordinates: [  0.014056601897960,  0.231561073011000,  0.454906065027400 ]
    mass: 12.010700
    reduced_to: 33
  - symbol: C  # 34
    coordinates: [  0.985943398099980,  0.731561073011500,  0.045093934970000 ]
    mass: 12.010700
    reduced_to: 34
  - symbol: C  # 35
    coordinates: [  0.985943398102040,  0.768438926989000,  0.545093934972600 ]
    mass: 12.010700
    reduced_to: 35
  - symbol: C  # 36
    coordinates: [  0.014056601895900,  0.268438926989500,  0.954906065024720 ]
    mass: 12.010700
    reduced_to: 36
  - symbol: C  # 37
    coordinates: [  0.600958032469100,  0.982858690324740,  0.277899484805600 ]
    mass: 12.010700
    reduced_to: 37
  - symbol: C  # 38
    coordinates: [  0.399041967528900,  0.482858690325300,  0.222100515191800 ]
    mass: 12.010700
    reduced_to: 38
  - symbol: C  # 39
    coordinates: [  0.399041967530900,  0.017141309675260,  0.722100515194400 ]
    mass: 12.010700
    reduced_to: 39
  - symbol: C  # 40
    coordinates: [  0.600958032467000,  0.517141309675800,  0.777899484802900 ]
    mass: 12.010700
    reduced_to: 40
  - symbol: C  # 41
    coordinates: [  0.581576188326800,  0.893058977558500,  0.174845706354000 ]
    mass: 12.010700
    reduced_to: 41
  - symbol: C  # 42
    coordinates: [  0.418423811671100,  0.393058977559000,  0.325154293643300 ]
    mass: 12.010700
    reduced_to: 42
  - symbol: C  # 43
    coordinates: [  0.418423811673200,  0.106941022441500,  0.825154293646000 ]
    mass: 12.010700
    reduced_to: 43
  - symbol: C  # 44
    coordinates: [  0.581576188324800,  0.606941022442100,  0.674845706351400 ]
    mass: 12.010700
    reduced_to: 44
  - symbol: H  # 45
    coordinates: [  0.638387398754100,  0.069762710224640,  0.505313600351700 ]
    mass: 1.007940
    reduced_to: 45
  - symbol: H  # 46
    coordinates: [  0.361612601243800,  0.569762710225200,  0.994686399645691 ]
    mass: 1.007940
    reduced_to: 46
  - symbol: H  # 47
    coordinates: [  0.361612601245900,  0.930237289775360,  0.494686399648300 ]
    mass: 1.007940
    reduced_to: 47
  - symbol: H  # 48
    coordinates: [  0.638387398752100,  0.430237289775900,  0.005313600349024 ]
    mass: 1.007940
    reduced_to: 48
  - symbol: H  # 49
    coordinates: [  0.762404271250600,  0.241348515186600,  0.666480195411300 ]
    mass: 1.007940
    reduced_to: 49
  - symbol: H  # 50
    coordinates: [  0.237595728747400,  0.741348515187100,  0.833519804586000 ]
    mass: 1.007940
    reduced_to: 50
  - symbol: H  # 51
    coordinates: [  0.237595728749400,  0.758651484813400,  0.333519804588700 ]
    mass: 1.007940
    reduced_to: 51
  - symbol: H  # 52
    coordinates: [  0.762404271248500,  0.258651484813900,  0.166480195408700 ]
    mass: 1.007940
    reduced_to: 52
  - symbol: H  # 53
    coordinates: [  0.212179817508700,  0.400798429387500,  0.558164562115400 ]
    mass: 1.007940
    reduced_to: 53
  - symbol: H  # 54
    coordinates: [  0.787820182489300,  0.900798429388040,  0.941835437881940 ]
    mass: 1.007940
    reduced_to: 54
  - symbol: H  # 55
    coordinates: [  0.787820182491300,  0.599201570612500,  0.441835437884600 ]
    mass: 1.007940
    reduced_to: 55
  - symbol: H  # 56
    coordinates: [  0.212179817506600,  0.099201570613040,  0.058164562112780 ]
    mass: 1.007940