Lmod has detected the following error: The following module(s) are unknown:
"epcc-job-env"

Please check the spelling or version number. Also try "module spider ..."
It is also possible your cache file is out-of-date; it may help to try:
  $ module --ignore-cache load "epcc-job-env"

Also make sure that all modulefiles written in TCL start with the string
#%Module




Warning: You have enabled access to software packages installed
by external parties on ARCHER2 or those that are not fully-supported.
The ARCHER2 CSE service does not test these packages. The service desk
will make reasonable efforts to assist with questions on the use of
these packages but some issues may not be able to be resolved by the
service and they may direct you to seek help from external parties.


         512 PROCESSORS WORKING

         
 *******************************************************************************
 *                                                                             *
 *                               CRYSTAL17                                     *
 *                      public : 1.0.2 - March 1st, 2018 STFC/Archer2 build    *
 *                       HTTP://WWW.CRYSTAL.UNITO.IT                           *
 *                                                                             *
 *                              MAIN AUTHORS                                   *
 *                                                                             *
 *  R. DOVESI(1,11), V.R. SAUNDERS(2), C. ROETTI(1,11), R. ORLANDO(1,11),      *
 *  C.M. ZICOVICH-WILSON(1,3), F. PASCALE(4), B. CIVALLERI(1,11),              *
 *  K. DOLL(5), N.M. HARRISON(2,6), I.J. BUSH(7), Ph. D'ARCO(8),               *
 *  M. LLUNELL(9), M. CAUSA'(10), Y. NOEL(8), L. MASCHIO(1,11), A. ERBA(1,11)  *
 *  M. RE'RAT(14), S. CASASSA(1,11)                                            *
 *                                                                             *
 *        CONTRIBUTIONS TO THE CODE HAVE ALSO BEEN GIVEN BY                    *
 *                                                                             *
 *  M. FERRABONE(1,11), M. DE LA PIERRE(1,11), M. FERRERO(1,11),               *
 *  J. BAIMA(1,11), E. ALBANESE(1,11), M.F. PEINTINGER(12), R. BAST(13),       *
 *  B. KIRTMAN(15), V. LACIVITA(1,11), R. DEMICHELIS(1,16)                     *
 *  G. BRANDEBURG(17), S. SALUSTRO(1,11), G. SANSONE(1,11)                     *
 *  M.T. RUGGIERO(18)                                                          *
 *                                                                             *
 * (1) THEORETICAL CHEMISTRY GROUP - UNIVERSITA' DI TORINO - TORINO (ITALY)    *
 * (2) COMPUTATIONAL SCIENCE & ENGINEERING DEPARTMENT - STFC DARESBURY (UK)    *
 * (3) UNIVERSIDAD AUTONOMA DEL ESTADO DE MORELOS - CUERNAVACA (MEXICO)        *
 * (4) UNIVERSITE' DE LORRAINE - NANCY (FRANCE)                                *
 * (5) UNIVERSITAET STUTTGART- STUTTGART (GERMANY)                             *
 * (6) IMPERIAL COLLEGE - LONDON (UK)                                          *
 * (7) OXFORD E-RESEARCH CENTRE - OXFORD (UK)                                  *
 * (8) UPMC - SORBONNE UNIVERSITES - PARIS (FRANCE)                            *
 * (9) UNIVERSIDAD DE BARCELONA - BARCELONA (SPAIN)                            *
 *(10) UNIVERSITA' DI NAPOLI "FEDERICO II" - NAPOLI (ITALY)                    *
 *(11) NIS - NANOSTRUCTURED INTERFACES AND SURFACES - TORINO (ITALY)           *
 *(12) MPI FUER CHEMISCHE ENERGIEKONVERSION - MUELHEIM AN DER RUHR (GERMANY)   *
 *(13) UNIVERSITY OF TROMSO - TROMSO (NORWAY)                                  *
 *(14) UNIVERSITE' DE PAU ET DES PAYS DE L'ADOUR - PAU (FRANCE)                *
 *(15) UNIVERSITY OF CALIFORNIA SANTA BARBARA - SANTA BARBARA (USA)            *
 *(16) CURTIN UNIVERSITY - PERTH (AUSTRALIA)                                   *
 *(17) UNIVERSITY COLLEGE LONDON - LONDON (UK)                                 *
 *(18) CAMBRIDGE UNIVERSITY - CAMBRIDGE (UK)                                   *
 *                                                                             *
 *******************************************************************************
 EEEEEEEEEE STARTING  DATE 04 03 2022 TIME 13:54:06.9
 F1 vol step-4 freq - PBEh-3c                                                    

 GEOMETRY INPUT FROM EXTERNAL FILE (FORTRAN UNIT 34)
 3D - CRYSTAL 

 *******************************************************************************
 LATTICE PARAMETERS  (ANGSTROMS AND DEGREES) - PRIMITIVE CELL
       A          B          C        ALPHA      BETA     GAMMA        VOLUME
    7.11935    9.15303   12.59084    90.00000 116.08853  90.00000    736.872653

 NUMBER OF IRREDUCIBLE ATOMS IN THE CELL:   20

 CARTESIAN COORDINATES (ANGSTROM) - IRREDUCIBLE ATOMS AND SYMMETRY RELATED

 AT.IRR.  AT  AT.N.          X                   Y                   Z
     1     1     8    2.785852675346E+00 -6.031711586830E-01  2.422034820361E+00
     1     2     8    1.550814383794E+00  3.973344392240E+00  3.242890764737E+00
     1     3     8   -2.785852675346E+00  6.031711586830E-01 -2.422034820361E+00
     1     4     8   -1.550814383794E+00 -3.973344392240E+00 -3.242890764737E+00
     5     5     8    7.817036452370E-01  4.514571090415E+00 -2.224688597345E+00
     5     6     8    2.000958379038E+00 -6.194446050700E-02 -3.422357170839E+00
     5     7     8   -7.817036452370E-01 -4.514571090415E+00  2.224688597345E+00
     5     8     8   -2.000958379038E+00  6.194446050700E-02  3.422357170839E+00
     9     9     7    2.959883796884E+00 -4.192254197143E+00 -1.812093021841E+00
     9    10     7   -1.772217726090E-01  3.842613537790E-01 -3.834952746343E+00
     9    11     7   -2.959883796884E+00  4.192254197143E+00  1.812093021841E+00
     9    12     7    1.772217726090E-01 -3.842613537790E-01  3.834952746343E+00
    13    13     6    2.865305056844E+00 -3.317743370837E+00 -7.161043287460E-01
    13    14     6   -8.264303256900E-02  1.258772180085E+00 -4.930941439438E+00
    13    15     6   -2.865305056844E+00  3.317743370837E+00  7.161043287460E-01
    13    16     6    8.264303256900E-02 -1.258772180085E+00  4.930941439438E+00
    17    17     6    1.792207455629E+00 -3.273371261472E+00  1.666733154790E-01
    17    18     6    9.904545686450E-01  1.303144289451E+00 -5.813719083662E+00
    17    19     6   -1.792207455629E+00  3.273371261472E+00 -1.666733154790E-01
    17    20     6   -9.904545686450E-01 -1.303144289451E+00  5.813719083662E+00
    21    21     6    1.786400899391E+00 -2.363648153435E+00  1.213402636518E+00
    21    22     6    2.550266159750E+00  2.212867397487E+00  4.451522948580E+00
    21    23     6   -1.786400899391E+00  2.363648153435E+00 -1.213402636518E+00
    21    24     6   -2.550266159750E+00 -2.212867397487E+00 -4.451522948580E+00
    25    25     6    2.852620433985E+00 -1.492192362833E+00  1.411087224924E+00
    25    26     6    1.484046625155E+00  3.084323188089E+00  4.253838360174E+00
    25    27     6   -2.852620433985E+00  1.492192362833E+00 -1.411087224924E+00
    25    28     6   -1.484046625155E+00 -3.084323188089E+00 -4.253838360174E+00
    29    29     6   -3.177515965393E+00 -1.562192769924E+00  5.299402378450E-01
    29    30     6    3.948539411190E-01  3.014322780999E+00  5.117105530338E+00
    29    31     6    3.177515965393E+00  1.562192769924E+00 -5.299402378450E-01
    29    32     6   -3.948539411190E-01 -3.014322780999E+00 -5.117105530338E+00
    33    33     6   -3.178488971740E+00 -2.461170641511E+00 -5.192204666460E-01
    33    34     6   -1.158178087401E+00  2.115344909412E+00 -5.145705118451E+00
    33    35     6    3.178488971740E+00  2.461170641511E+00  5.192204666460E-01
    33    36     6    1.158178087401E+00 -2.115344909412E+00  5.145705118451E+00
    37    37     6    1.973778808510E+00  4.392176335696E+00 -2.515019774332E+00
    37    38     6    8.088832157640E-01 -1.843392152260E-01 -3.132025993852E+00
    37    39     6   -1.973778808510E+00 -4.392176335696E+00  2.515019774332E+00
    37    40     6   -8.088832157640E-01  1.843392152260E-01  3.132025993852E+00
    41    41     6    2.416021874225E+00  3.577613618325E+00 -3.696462502544E+00
    41    42     6    3.666401500500E-01 -9.989019325970E-01 -1.950583265639E+00
    41    43     6   -2.416021874225E+00 -3.577613618325E+00  3.696462502544E+00
    41    44     6   -3.666401500500E-01  9.989019325970E-01  1.950583265639E+00
    45    45     1    9.519122370910E-01 -3.938265799100E+00  5.691720577100E-02
    45    46     1    1.830749787184E+00  6.382497518220E-01 -5.703962973955E+00
    45    47     1   -9.519122370910E-01  3.938265799100E+00 -5.691720577100E-02
    45    48     1   -1.830749787184E+00 -6.382497518220E-01  5.703962973955E+00
    49    49     1    9.369087292950E-01 -2.345157207996E+00  1.884228163708E+00
    49    50     1    3.399758329846E+00  2.231358342926E+00  3.780697421389E+00
    49    51     1   -9.369087292950E-01  2.345157207996E+00 -1.884228163708E+00
    49    52     1   -3.399758329846E+00 -2.231358342926E+00 -3.780697421389E+00
    53    53     1   -2.331561311059E+00 -9.004242773480E-01  6.572123902870E-01
    53    54     1   -4.511007132150E-01  3.676091273574E+00  4.989833377897E+00
    53    55     1    2.331561311059E+00  9.004242773480E-01 -6.572123902870E-01
    53    56     1    4.511007132150E-01 -3.676091273574E+00 -4.989833377897E+00
    57    57     1   -2.322364075450E+00 -2.497790765750E+00 -1.180246096940E+00
    57    58     1   -2.014302983691E+00  2.078724785172E+00 -4.484679488157E+00
    57    59     1    2.322364075450E+00  2.497790765750E+00  1.180246096940E+00
    57    60     1    2.014302983691E+00 -2.078724785172E+00  4.484679488157E+00
    61    61     1   -3.451463220969E+00 -2.375633915240E-01  2.646706633055E+00
    61    62     1    6.688011966950E-01  4.338952159398E+00  3.000339135129E+00
    61    63     1    3.451463220969E+00  2.375633915240E-01 -2.646706633055E+00
    61    64     1   -6.688011966950E-01 -4.338952159398E+00 -3.000339135129E+00
    65    65     1   -3.219870893134E+00 -4.322352694198E+00 -2.188682322477E+00
    65    66     1   -1.116796166007E+00  2.541628567250E-01 -3.476243262621E+00
    65    67     1    3.219870893134E+00  4.322352694198E+00  2.188682322477E+00
    65    68     1    1.116796166007E+00 -2.541628567250E-01  3.476243262621E+00
    69    69     1    1.782514330051E+00  3.786725870445E+00 -4.556750745906E+00
    69    70     1    1.000147694223E+00 -7.897896804770E-01 -1.090295022278E+00
    69    71     1   -1.782514330051E+00 -3.786725870445E+00  4.556750745906E+00
    69    72     1   -1.000147694223E+00  7.897896804770E-01  1.090295022278E+00
    73    73     1    3.454762670731E+00  3.747929168864E+00 -3.970514482279E+00
    73    74     1   -6.721006464560E-01 -8.285863820580E-01 -1.676531285905E+00
    73    75     1   -3.454762670731E+00 -3.747929168864E+00  3.970514482279E+00
    73    76     1    6.721006464560E-01  8.285863820580E-01  1.676531285905E+00
    77    77     1    2.291790804141E+00  2.517969433683E+00 -3.479034483450E+00
    77    78     1    4.908712201340E-01 -2.058546117239E+00 -2.168011284733E+00
    77    79     1   -2.291790804141E+00 -2.517969433683E+00  3.479034483450E+00
    77    80     1   -4.908712201340E-01  2.058546117239E+00  2.168011284733E+00

 SPACE  GROUP  N.                     :   14
 NUMBER OF SYMMETRY OPERATORS         :    4
 *******************************************************************************
 LATTICE PARAMETERS (ANGSTROMS AND DEGREES) - BOHR = 0.5291772083 ANGSTROM
 PRIMITIVE CELL - CENTRING CODE 1/0 VOLUME=   736.872653 - DENSITY  1.362 g/cm^3
         A              B              C           ALPHA      BETA       GAMMA 
     7.11935154     9.15303110    12.59084332    90.000000 116.088533  90.000000
 *******************************************************************************
 ATOMS IN THE ASYMMETRIC UNIT   20 - ATOMS IN THE UNIT CELL:   80
     ATOM                 X/A                 Y/B                 Z/C    
 *******************************************************************************
      1 T   8 O    -4.417414705328E-01 -6.589851514453E-02  2.135677094780E-01
      2 F   8 O     4.417414705324E-01  4.341014848558E-01  2.864322905206E-01
      3 F   8 O     4.417414705328E-01  6.589851514453E-02 -2.135677094780E-01
      4 F   8 O    -4.417414705324E-01 -4.341014848558E-01 -2.864322905206E-01
      5 T   8 O    -4.412697869956E-02  4.932323555098E-01 -1.969082336439E-01
      6 F   8 O     4.412697870067E-02 -6.767644490419E-03 -3.030917663547E-01
      7 F   8 O     4.412697869956E-02 -4.932323555098E-01  1.969082336439E-01
      8 F   8 O    -4.412697870067E-02  6.767644490419E-03  3.030917663547E-01
      9 T   7 N     2.899703609582E-01 -4.580181308791E-01 -1.609051629295E-01
     10 F   7 N    -2.899703609571E-01  4.198186912112E-02 -3.390948370691E-01
     11 F   7 N    -2.899703609582E-01  4.580181308791E-01  1.609051629295E-01
     12 F   7 N     2.899703609571E-01 -4.198186912112E-02  3.390948370691E-01
     13 T   6 C     3.524670686595E-01 -3.624748276197E-01 -6.396321236405E-02
     14 F   6 C    -3.524670686584E-01  1.375251723805E-01 -4.360367876345E-01
     15 F   6 C    -3.524670686595E-01  3.624748276197E-01  6.396321236405E-02
     16 F   6 C     3.524670686584E-01 -1.375251723805E-01  4.360367876345E-01
     17 T   6 C     2.629491284195E-01 -3.576270226826E-01  1.434128922040E-02
     18 F   6 C    -2.629491284185E-01  1.423729773178E-01  4.856587107811E-01
     19 F   6 C    -2.629491284195E-01  3.576270226826E-01 -1.434128922040E-02
     20 F   6 C     2.629491284185E-01 -1.423729773178E-01 -4.856587107811E-01
     21 T   6 C     3.344943301047E-01 -2.582366570305E-01  1.069073980183E-01
     22 F   6 C    -3.344943301050E-01  2.417633429698E-01  3.930926019803E-01
     23 F   6 C    -3.344943301047E-01  2.582366570305E-01 -1.069073980183E-01
     24 F   6 C     3.344943301050E-01 -2.417633429698E-01 -3.930926019803E-01
     25 T   6 C     4.977390876896E-01 -1.630271268862E-01  1.241523266078E-01
     26 F   6 C    -4.977390876900E-01  3.369728731140E-01  3.758476733908E-01
     27 F   6 C    -4.977390876896E-01  1.630271268862E-01 -1.241523266078E-01
     28 F   6 C     4.977390876900E-01 -3.369728731140E-01 -3.758476733908E-01
     29 T   6 C    -4.091362601573E-01 -1.706749111352E-01  4.756960907727E-02
     30 F   6 C     4.091362601562E-01  3.293250888652E-01  4.524303909212E-01
     31 F   6 C     4.091362601573E-01  1.706749111352E-01 -4.756960907727E-02
     32 F   6 C    -4.091362601562E-01 -3.293250888652E-01 -4.524303909212E-01
     33 T   6 C    -4.818006404430E-01 -2.688913228992E-01 -4.521000717590E-02
     34 F   6 C     4.818006404433E-01  2.311086771012E-01 -4.547899928226E-01
     35 F   6 C     4.818006404430E-01  2.688913228992E-01  4.521000717590E-02
     36 F   6 C    -4.818006404433E-01 -2.311086771012E-01  4.547899928226E-01
     37 T   6 C     1.030376964752E-01  4.798603093147E-01 -2.228476775993E-01
     38 F   6 C    -1.030376964742E-01 -2.013969068552E-02 -2.771523223993E-01
     39 F   6 C    -1.030376964752E-01 -4.798603093147E-01  2.228476775993E-01
     40 F   6 C     1.030376964742E-01  2.013969068552E-02  2.771523223993E-01
     41 T   6 C     8.340710143712E-02  3.908665422983E-01 -3.274237502263E-01
     42 F   6 C    -8.340710143595E-02 -1.091334577019E-01 -1.725762497722E-01
     43 F   6 C    -8.340710143712E-02 -3.908665422983E-01  3.274237502263E-01
     44 F   6 C     8.340710143595E-02  1.091334577019E-01  1.725762497722E-01
     45 T   1 H     1.374775258943E-01 -4.302690283996E-01  4.821913529099E-03
     46 F   1 H    -1.374775258932E-01  6.973097160062E-02  4.951780864723E-01
     47 F   1 H    -1.374775258943E-01  4.302690283996E-01 -4.821913529099E-03
     48 F   1 H     1.374775258932E-01 -6.973097160062E-02 -4.951780864723E-01
     49 T   1 H     2.616936570418E-01 -2.562164579037E-01  1.664187972069E-01
     50 F   1 H    -2.616936570421E-01  2.437835420965E-01  3.335812027916E-01
     51 F   1 H    -2.616936570418E-01  2.562164579037E-01 -1.664187972069E-01
     52 F   1 H     2.616936570421E-01 -2.437835420965E-01 -3.335812027916E-01
     53 T   1 H    -2.816598267149E-01 -9.837443654780E-02  5.863671409836E-02
     54 F   1 H     2.816598267139E-01  4.016255634524E-01  4.413632859002E-01
     55 F   1 H     2.816598267149E-01  9.837443654780E-02 -5.863671409836E-02
     56 F   1 H    -2.816598267139E-01 -4.016255634524E-01 -4.413632859002E-01
     57 T   1 H    -4.073920072078E-01 -2.728921969082E-01 -1.038562507359E-01
     58 F   1 H     4.073920072081E-01  2.271078030920E-01 -3.961437492626E-01
     59 F   1 H     4.073920072078E-01  2.728921969082E-01  1.038562507359E-01
     60 F   1 H    -4.073920072081E-01 -2.271078030920E-01  3.961437492626E-01
     61 T   1 H    -3.012372152767E-01 -2.595461425628E-02  2.348212506304E-01
     62 F   1 H     3.012372152758E-01  4.740453857439E-01  2.651787493682E-01
     63 F   1 H     3.012372152767E-01  2.595461425628E-02 -2.348212506304E-01
     64 F   1 H    -3.012372152758E-01 -4.740453857439E-01 -2.651787493682E-01
     65 T   1 H     3.969849875540E-01 -4.722318373122E-01 -1.928353880823E-01
     66 F   1 H    -3.969849875538E-01  2.776816268809E-02 -3.071646119163E-01
     67 F   1 H    -3.969849875540E-01  4.722318373122E-01  1.928353880823E-01
     68 F   1 H     3.969849875538E-01 -2.776816268809E-02  3.071646119163E-01
     69 T   1 H    -6.493830902651E-02  4.137127721202E-01 -4.033604337407E-01
     70 F   1 H     6.493830902748E-02 -8.628722787998E-02 -9.663956625785E-02
     71 F   1 H     6.493830902651E-02 -4.137127721202E-01  4.033604337407E-01
     72 F   1 H    -6.493830902748E-02  8.628722787998E-02  9.663956625785E-02
     73 T   1 H     2.101860141461E-01  4.094740995811E-01 -3.518895306383E-01
     74 F   1 H    -2.101860141450E-01 -9.052590041909E-02 -1.481104693603E-01
     75 F   1 H    -2.101860141461E-01 -4.094740995811E-01  3.518895306383E-01
     76 F   1 H     2.101860141450E-01  9.052590041909E-02  1.481104693603E-01
     77 T   1 H     8.100951583858E-02  2.750967854984E-01 -3.081684708809E-01
     78 F   1 H    -8.100951583740E-02 -2.249032145018E-01 -1.918315291176E-01
     79 F   1 H    -8.100951583858E-02 -2.750967854984E-01  3.081684708809E-01
     80 F   1 H     8.100951583740E-02  2.249032145018E-01  1.918315291176E-01

 T = ATOM BELONGING TO THE ASYMMETRIC UNIT
 *******************************************************************************
 * GEOMETRY EDITING - INPUT COORDINATES ARE GIVEN IN ANGSTROM         
 *******************************************************************************

 GEOMETRY NOW FULLY CONSISTENT WITH THE GROUP

 FRQFRQFRQFRQFRQFRQFRQFRQFRQFRQFRQFRQFRQFRQFRQFRQFRQFRQFRQFRQFRQFRQFRQFRQFRQFRQ

                       FREQUENCY CALCULATION

 INFORMATION **** INPFREQ ****  PRINTING OF EIGENVECTORS
 INFORMATION **** INPFREQ **** NEW DEFAULT - IMPOSING ECKART CONDITIONS TO THE HESSIAN

 GCALCO - MAX INDICES DIRECT LATTICE VECTOR    20    14    11
 NO.OF VECTORS CREATED 6999 STARS 1868 RMAX   202.29907 BOHR

 GEOMETRY FOR WAVE FUNCTION - DIMENSIONALITY OF THE SYSTEM    3
 (NON PERIODIC DIRECTION: LATTICE PARAMETER FORMALLY SET TO 500)
 *******************************************************************************
 LATTICE PARAMETERS (ANGSTROMS AND DEGREES) - BOHR = 0.5291772083 ANGSTROM
 PRIMITIVE CELL - CENTRING CODE 1/0 VOLUME=   736.872653 - DENSITY  1.362 g/cm^3
         A              B              C           ALPHA      BETA       GAMMA 
     7.11935154     9.15303110    12.59084332    90.000000 116.088533  90.000000
 *******************************************************************************
 ATOMS IN THE ASYMMETRIC UNIT   20 - ATOMS IN THE UNIT CELL:   80
     ATOM                 X/A                 Y/B                 Z/C    
 *******************************************************************************
      1 T   8 O    -4.417414705328E-01 -6.589851514453E-02  2.135677094780E-01
      2 F   8 O     4.417414705321E-01  4.341014848555E-01  2.864322905203E-01
      3 F   8 O     4.417414705328E-01  6.589851514453E-02 -2.135677094780E-01
      4 F   8 O    -4.417414705335E-01 -4.341014848555E-01 -2.864322905238E-01
      5 T   8 O    -4.412697869956E-02  4.932323555098E-01 -1.969082336439E-01
      6 F   8 O     4.412697869888E-02 -6.767644490200E-03 -3.030917663579E-01
      7 F   8 O     4.412697869956E-02 -4.932323555098E-01  1.969082336439E-01
      8 F   8 O    -4.412697870025E-02  6.767644490200E-03  3.030917663543E-01
      9 T   7 N     2.899703609582E-01 -4.580181308791E-01 -1.609051629295E-01
     10 F   7 N    -2.899703609589E-01  4.198186912090E-02 -3.390948370722E-01
     11 F   7 N    -2.899703609582E-01  4.580181308791E-01  1.609051629295E-01
     12 F   7 N     2.899703609575E-01 -4.198186912090E-02  3.390948370687E-01
     13 T   6 C     3.524670686595E-01 -3.624748276197E-01 -6.396321236405E-02
     14 F   6 C    -3.524670686602E-01  1.375251723803E-01 -4.360367876377E-01
     15 F   6 C    -3.524670686595E-01  3.624748276197E-01  6.396321236405E-02
     16 F   6 C     3.524670686588E-01 -1.375251723803E-01  4.360367876342E-01
     17 T   6 C     2.629491284195E-01 -3.576270226826E-01  1.434128922040E-02
     18 F   6 C    -2.629491284202E-01  1.423729773174E-01  4.856587107778E-01
     19 F   6 C    -2.629491284195E-01  3.576270226826E-01 -1.434128922040E-02
     20 F   6 C     2.629491284189E-01 -1.423729773174E-01 -4.856587107814E-01
     21 T   6 C     3.344943301047E-01 -2.582366570305E-01  1.069073980183E-01
     22 F   6 C    -3.344943301054E-01  2.417633429695E-01  3.930926019799E-01
     23 F   6 C    -3.344943301047E-01  2.582366570305E-01 -1.069073980183E-01
     24 F   6 C     3.344943301040E-01 -2.417633429695E-01 -3.930926019835E-01
     25 T   6 C     4.977390876896E-01 -1.630271268862E-01  1.241523266078E-01
     26 F   6 C    -4.977390876903E-01  3.369728731138E-01  3.758476733905E-01
     27 F   6 C    -4.977390876896E-01  1.630271268862E-01 -1.241523266078E-01
     28 F   6 C     4.977390876889E-01 -3.369728731138E-01 -3.758476733940E-01
     29 T   6 C    -4.091362601573E-01 -1.706749111352E-01  4.756960907727E-02
     30 F   6 C     4.091362601566E-01  3.293250888648E-01  4.524303909210E-01
     31 F   6 C     4.091362601573E-01  1.706749111352E-01 -4.756960907727E-02
     32 F   6 C    -4.091362601579E-01 -3.293250888648E-01 -4.524303909245E-01
     33 T   6 C    -4.818006404430E-01 -2.688913228992E-01 -4.521000717590E-02
     34 F   6 C     4.818006404423E-01  2.311086771008E-01 -4.547899928259E-01
     35 F   6 C     4.818006404430E-01  2.688913228992E-01  4.521000717590E-02
     36 F   6 C    -4.818006404436E-01 -2.311086771008E-01  4.547899928223E-01
     37 T   6 C     1.030376964752E-01  4.798603093147E-01 -2.228476775993E-01
     38 F   6 C    -1.030376964759E-01 -2.013969068530E-02 -2.771523224025E-01
     39 F   6 C    -1.030376964752E-01 -4.798603093147E-01  2.228476775993E-01
     40 F   6 C     1.030376964745E-01  2.013969068530E-02  2.771523223990E-01
     41 T   6 C     8.340710143712E-02  3.908665422983E-01 -3.274237502263E-01
     42 F   6 C    -8.340710143780E-02 -1.091334577017E-01 -1.725762497755E-01
     43 F   6 C    -8.340710143712E-02 -3.908665422983E-01  3.274237502263E-01
     44 F   6 C     8.340710143644E-02  1.091334577017E-01  1.725762497719E-01
     45 T   1 H     1.374775258943E-01 -4.302690283996E-01  4.821913529099E-03
     46 F   1 H    -1.374775258950E-01  6.973097160040E-02  4.951780864691E-01
     47 F   1 H    -1.374775258943E-01  4.302690283996E-01 -4.821913529099E-03
     48 F   1 H     1.374775258936E-01 -6.973097160040E-02 -4.951780864727E-01
     49 T   1 H     2.616936570418E-01 -2.562164579037E-01  1.664187972069E-01
     50 F   1 H    -2.616936570425E-01  2.437835420963E-01  3.335812027913E-01
     51 F   1 H    -2.616936570418E-01  2.562164579037E-01 -1.664187972069E-01
     52 F   1 H     2.616936570411E-01 -2.437835420963E-01 -3.335812027948E-01
     53 T   1 H    -2.816598267149E-01 -9.837443654780E-02  5.863671409836E-02
     54 F   1 H     2.816598267142E-01  4.016255634522E-01  4.413632858999E-01
     55 F   1 H     2.816598267149E-01  9.837443654780E-02 -5.863671409836E-02
     56 F   1 H    -2.816598267156E-01 -4.016255634522E-01 -4.413632859034E-01
     57 T   1 H    -4.073920072078E-01 -2.728921969082E-01 -1.038562507359E-01
     58 F   1 H     4.073920072071E-01  2.271078030918E-01 -3.961437492658E-01
     59 F   1 H     4.073920072078E-01  2.728921969082E-01  1.038562507359E-01
     60 F   1 H    -4.073920072084E-01 -2.271078030918E-01  3.961437492623E-01
     61 T   1 H    -3.012372152767E-01 -2.595461425628E-02  2.348212506304E-01
     62 F   1 H     3.012372152760E-01  4.740453857437E-01  2.651787493678E-01
     63 F   1 H     3.012372152767E-01  2.595461425628E-02 -2.348212506304E-01
     64 F   1 H    -3.012372152774E-01 -4.740453857437E-01 -2.651787493714E-01
     65 T   1 H     3.969849875540E-01 -4.722318373122E-01 -1.928353880823E-01
     66 F   1 H    -3.969849875547E-01  2.776816268776E-02 -3.071646119195E-01
     67 F   1 H    -3.969849875540E-01  4.722318373122E-01  1.928353880823E-01
     68 F   1 H     3.969849875533E-01 -2.776816268776E-02  3.071646119160E-01
     69 T   1 H    -6.493830902651E-02  4.137127721202E-01 -4.033604337407E-01
     70 F   1 H     6.493830902583E-02 -8.628722787976E-02 -9.663956626103E-02
     71 F   1 H     6.493830902651E-02 -4.137127721202E-01  4.033604337407E-01
     72 F   1 H    -6.493830902719E-02  8.628722787976E-02  9.663956625749E-02
     73 T   1 H     2.101860141461E-01  4.094740995811E-01 -3.518895306383E-01
     74 F   1 H    -2.101860141468E-01 -9.052590041887E-02 -1.481104693635E-01
     75 F   1 H    -2.101860141461E-01 -4.094740995811E-01  3.518895306383E-01
     76 F   1 H     2.101860141455E-01  9.052590041887E-02  1.481104693599E-01
     77 T   1 H     8.100951583858E-02  2.750967854984E-01 -3.081684708809E-01
     78 F   1 H    -8.100951583926E-02 -2.249032145016E-01 -1.918315291209E-01
     79 F   1 H    -8.100951583858E-02 -2.750967854984E-01  3.081684708809E-01
     80 F   1 H     8.100951583790E-02  2.249032145016E-01  1.918315291173E-01

 T = ATOM BELONGING TO THE ASYMMETRIC UNIT

 ****    4 SYMMOPS - TRANSLATORS IN FRACTIONAL UNITS
 **** MATRICES AND TRANSLATORS IN THE CRYSTALLOGRAPHIC REFERENCE FRAME
   V INV                    ROTATION MATRICES                   TRANSLATORS
   1   1  1.00  0.00  0.00  0.00  1.00  0.00  0.00  0.00  1.00  0.00  0.00  0.00
   2   2 -1.00 -0.00 -0.00 -0.00  1.00 -0.00 -0.00 -0.00 -1.00 -0.00  0.50  0.50
   3   3 -1.00 -0.00 -0.00 -0.00 -1.00  0.00 -0.00  0.00 -1.00  0.00  0.00  0.00
   4   4  1.00  0.00  0.00  0.00 -1.00  0.00  0.00  0.00  1.00 -0.00  0.50  0.50

 DIRECT LATTICE VECTORS CARTESIAN COMPONENTS (ANGSTROM)
          X                    Y                    Z
   0.711932908341E+01   0.433556018171E-15   0.178798169138E-01
   0.101895595313E-17   0.915303110184E+01   0.141707433800E-17
  -0.556532404855E+01   0.766655228429E-15   0.112940915364E+02


 CARTESIAN COORDINATES - PRIMITIVE CELL
 *******************************************************************************
 *      ATOM          X(ANGSTROM)         Y(ANGSTROM)         Z(ANGSTROM)
 *******************************************************************************
    1     8 O     2.785852675346E+00 -6.031711586830E-01  2.422034820361E+00
    2     8 O     1.550814383794E+00  3.973344392237E+00  3.242890764733E+00
    3     8 O    -2.785852675346E+00  6.031711586830E-01 -2.422034820361E+00
    4     8 O    -1.550814383784E+00 -3.973344392237E+00 -3.242890764773E+00
    5     8 O     7.817036452370E-01  4.514571090415E+00 -2.224688597345E+00
    6     8 O     2.000958379043E+00 -6.194446050500E-02 -3.422357170875E+00
    7     8 O    -7.817036452370E-01 -4.514571090415E+00  2.224688597345E+00
    8     8 O    -2.000958379033E+00  6.194446050500E-02  3.422357170835E+00
    9     7 N     2.959883796884E+00 -4.192254197143E+00 -1.812093021841E+00
   10     7 N    -1.772217726040E-01  3.842613537770E-01 -3.834952746379E+00
   11     7 N    -2.959883796884E+00  4.192254197143E+00  1.812093021841E+00
   12     7 N     1.772217726140E-01 -3.842613537770E-01  3.834952746339E+00
   13     6 C     2.865305056844E+00 -3.317743370837E+00 -7.161043287460E-01
   14     6 C    -8.264303256400E-02  1.258772180083E+00 -4.930941439474E+00
   15     6 C    -2.865305056844E+00  3.317743370837E+00  7.161043287460E-01
   16     6 C     8.264303257400E-02 -1.258772180083E+00  4.930941439434E+00
   17     6 C     1.792207455629E+00 -3.273371261472E+00  1.666733154790E-01
   18     6 C     9.904545686510E-01  1.303144289448E+00 -5.813719083699E+00
   19     6 C    -1.792207455629E+00  3.273371261472E+00 -1.666733154790E-01
   20     6 C    -9.904545686410E-01 -1.303144289448E+00  5.813719083659E+00
   21     6 C     1.786400899391E+00 -2.363648153435E+00  1.213402636518E+00
   22     6 C     2.550266159749E+00  2.212867397485E+00  4.451522948576E+00
   23     6 C    -1.786400899391E+00  2.363648153435E+00 -1.213402636518E+00
   24     6 C    -2.550266159739E+00 -2.212867397485E+00 -4.451522948616E+00
   25     6 C     2.852620433985E+00 -1.492192362833E+00  1.411087224924E+00
   26     6 C     1.484046625155E+00  3.084323188087E+00  4.253838360170E+00
   27     6 C    -2.852620433985E+00  1.492192362833E+00 -1.411087224924E+00
   28     6 C    -1.484046625145E+00 -3.084323188087E+00 -4.253838360210E+00
   29     6 C    -3.177515965393E+00 -1.562192769924E+00  5.299402378450E-01
   30     6 C     3.948539411230E-01  3.014322780996E+00  5.117105530335E+00
   31     6 C     3.177515965393E+00  1.562192769924E+00 -5.299402378450E-01
   32     6 C    -3.948539411130E-01 -3.014322780996E+00 -5.117105530375E+00
   33     6 C    -3.178488971740E+00 -2.461170641511E+00 -5.192204666460E-01
   34     6 C    -1.158178087390E+00  2.115344909409E+00 -5.145705118488E+00
   35     6 C     3.178488971740E+00  2.461170641511E+00  5.192204666460E-01
   36     6 C     1.158178087400E+00 -2.115344909409E+00  5.145705118448E+00
   37     6 C     1.973778808510E+00  4.392176335696E+00 -2.515019774332E+00
   38     6 C     8.088832157700E-01 -1.843392152240E-01 -3.132025993888E+00
   39     6 C    -1.973778808510E+00 -4.392176335696E+00  2.515019774332E+00
   40     6 C    -8.088832157600E-01  1.843392152240E-01  3.132025993848E+00
   41     6 C     2.416021874225E+00  3.577613618325E+00 -3.696462502544E+00
   42     6 C     3.666401500550E-01 -9.989019325950E-01 -1.950583265676E+00
   43     6 C    -2.416021874225E+00 -3.577613618325E+00  3.696462502544E+00
   44     6 C    -3.666401500450E-01  9.989019325950E-01  1.950583265636E+00
   45     1 H     9.519122370910E-01 -3.938265799100E+00  5.691720577100E-02
   46     1 H     1.830749787189E+00  6.382497518200E-01 -5.703962973991E+00
   47     1 H    -9.519122370910E-01  3.938265799100E+00 -5.691720577100E-02
   48     1 H    -1.830749787179E+00 -6.382497518200E-01  5.703962973951E+00
   49     1 H     9.369087292950E-01 -2.345157207996E+00  1.884228163708E+00
   50     1 H     3.399758329845E+00  2.231358342924E+00  3.780697421386E+00
   51     1 H    -9.369087292950E-01  2.345157207996E+00 -1.884228163708E+00
   52     1 H    -3.399758329835E+00 -2.231358342924E+00 -3.780697421426E+00
   53     1 H    -2.331561311059E+00 -9.004242773480E-01  6.572123902870E-01
   54     1 H    -4.511007132110E-01  3.676091273572E+00  4.989833377893E+00
   55     1 H     2.331561311059E+00  9.004242773480E-01 -6.572123902870E-01
   56     1 H     4.511007132210E-01 -3.676091273572E+00 -4.989833377933E+00
   57     1 H    -2.322364075450E+00 -2.497790765750E+00 -1.180246096940E+00
   58     1 H    -2.014302983680E+00  2.078724785170E+00 -4.484679488194E+00
   59     1 H     2.322364075450E+00  2.497790765750E+00  1.180246096940E+00
   60     1 H     2.014302983690E+00 -2.078724785170E+00  4.484679488154E+00
   61     1 H    -3.451463220969E+00 -2.375633915240E-01  2.646706633055E+00
   62     1 H     6.688011966990E-01  4.338952159396E+00  3.000339135125E+00
   63     1 H     3.451463220969E+00  2.375633915240E-01 -2.646706633055E+00
   64     1 H    -6.688011966890E-01 -4.338952159396E+00 -3.000339135165E+00
   65     1 H    -3.219870893134E+00 -4.322352694198E+00 -2.188682322477E+00
   66     1 H    -1.116796165996E+00  2.541628567220E-01 -3.476243262657E+00
   67     1 H     3.219870893134E+00  4.322352694198E+00  2.188682322477E+00
   68     1 H     1.116796166006E+00 -2.541628567220E-01  3.476243262617E+00
   69     1 H     1.782514330051E+00  3.786725870445E+00 -4.556750745906E+00
   70     1 H     1.000147694229E+00 -7.897896804750E-01 -1.090295022314E+00
   71     1 H    -1.782514330051E+00 -3.786725870445E+00  4.556750745906E+00
   72     1 H    -1.000147694219E+00  7.897896804750E-01  1.090295022274E+00
   73     1 H     3.454762670731E+00  3.747929168864E+00 -3.970514482279E+00
   74     1 H    -6.721006464510E-01 -8.285863820560E-01 -1.676531285941E+00
   75     1 H    -3.454762670731E+00 -3.747929168864E+00  3.970514482279E+00
   76     1 H     6.721006464610E-01  8.285863820560E-01  1.676531285901E+00
   77     1 H     2.291790804141E+00  2.517969433683E+00 -3.479034483450E+00
   78     1 H     4.908712201390E-01 -2.058546117237E+00 -2.168011284770E+00
   79     1 H    -2.291790804141E+00 -2.517969433683E+00  3.479034483450E+00
   80     1 H    -4.908712201290E-01  2.058546117237E+00  2.168011284730E+00

 *******************************************************************************
 STARTING BASIS SET HANDLING 
 *******************************************************************************

 Loading internal basis set: DEF2-MSVP           

 Please cite in your publication:
 Fully Optimized Contracted Gaussian Basis Sets for Atoms Li to Kr. A. Schaefer, H. Horn and R. Ahlrichs; J. Chem. Phys. 97, 2571 (1992).                                                                                                                         
 S. Grimme, J. G. Brandenburg, C. Bannwarth, and A. Hansen, J. Chem. Phys., 143, 054107 (2015).                                                                                                                                                                  

 *******************************************************************************
 LOCAL ATOMIC FUNCTIONS BASIS SET
 *******************************************************************************
   ATOM   X(AU)   Y(AU)   Z(AU)  N. TYPE  EXPONENT  S COEF   P COEF   D/F/G COEF
 *******************************************************************************
   1 O    5.264  -1.140   4.577
                                  1 S  
                                         6.773E+03 1.727E-03 0.000E+00 0.000E+00
                                         1.017E+03 1.325E-02 0.000E+00 0.000E+00
                                         2.313E+02 6.603E-02 0.000E+00 0.000E+00
                                         6.501E+01 2.353E-01 0.000E+00 0.000E+00
                                         2.050E+01 5.498E-01 0.000E+00 0.000E+00
                                  2 S  
                                         6.716E+00 1.000E+00 0.000E+00 0.000E+00
                                  3 S  
                                         1.147E+00 1.000E+00 0.000E+00 0.000E+00
                                  4 S  
                                         3.342E-01 1.000E+00 0.000E+00 0.000E+00
                           5-     7 P  
                                         1.769E+01 0.000E+00 4.359E-02 0.000E+00
                                         3.854E+00 0.000E+00 2.318E-01 0.000E+00
                                         1.047E+00 0.000E+00 5.146E-01 0.000E+00
                           8-    10 P  
                                         2.759E-01 0.000E+00 1.000E+00 0.000E+00
                          11-    15 D  
                                         8.000E-01 0.000E+00 0.000E+00 1.000E+00
   2 O    2.931   7.509   6.128
   3 O   -5.264   1.140  -4.577
   4 O   -2.931  -7.509  -6.128
   5 O    1.477   8.531  -4.204
   6 O    3.781  -0.117  -6.467
   7 O   -1.477  -8.531   4.204
   8 O   -3.781   0.117   6.467
   9 N    5.593  -7.922  -3.424
                                121 S  
                                         5.072E+03 1.707E-03 0.000E+00 0.000E+00
                                         7.614E+02 1.309E-02 0.000E+00 0.000E+00
                                         1.732E+02 6.510E-02 0.000E+00 0.000E+00
                                         4.867E+01 2.305E-01 0.000E+00 0.000E+00
                                         1.533E+01 5.330E-01 0.000E+00 0.000E+00
                                122 S  
                                         5.019E+00 1.000E+00 0.000E+00 0.000E+00
                                123 S  
                                         8.355E-01 1.000E+00 0.000E+00 0.000E+00
                                124 S  
                                         2.463E-01 1.000E+00 0.000E+00 0.000E+00
                         125-   127 P  
                                         1.355E+01 0.000E+00 4.063E-02 0.000E+00
                                         2.918E+00 0.000E+00 2.209E-01 0.000E+00
                                         7.983E-01 0.000E+00 5.186E-01 0.000E+00
                         128-   130 P  
                                         2.190E-01 0.000E+00 1.000E+00 0.000E+00
                         131-   135 D  
                                         8.000E-01 0.000E+00 0.000E+00 1.000E+00
  10 N   -0.335   0.726  -7.247
  11 N   -5.593   7.922   3.424
  12 N    0.335  -0.726   7.247
  13 C    5.415  -6.270  -1.353
                                181 S  
                                         3.624E+03 1.634E-03 0.000E+00 0.000E+00
                                         5.440E+02 1.252E-02 0.000E+00 0.000E+00
                                         1.237E+02 6.211E-02 0.000E+00 0.000E+00
                                         3.476E+01 2.182E-01 0.000E+00 0.000E+00
                                         1.093E+01 4.980E-01 0.000E+00 0.000E+00
                                182 S  
                                         3.574E+00 1.000E+00 0.000E+00 0.000E+00
                                183 S  
                                         5.748E-01 1.000E+00 0.000E+00 0.000E+00
                                184 S  
                                         1.730E-01 1.000E+00 0.000E+00 0.000E+00
                         185-   187 P  
                                         9.443E+00 0.000E+00 3.790E-02 0.000E+00
                                         2.002E+00 0.000E+00 2.082E-01 0.000E+00
                                         5.463E-01 0.000E+00 5.047E-01 0.000E+00
                         188-   190 P  
                                         1.520E-01 0.000E+00 1.000E+00 0.000E+00
                         191-   195 D  
                                         8.000E-01 0.000E+00 0.000E+00 1.000E+00
  14 C   -0.156   2.379  -9.318
  15 C   -5.415   6.270   1.353
  16 C    0.156  -2.379   9.318
  17 C    3.387  -6.186   0.315
  18 C    1.872   2.463 -10.986
  19 C   -3.387   6.186  -0.315
  20 C   -1.872  -2.463  10.986
  21 C    3.376  -4.467   2.293
  22 C    4.819   4.182   8.412
  23 C   -3.376   4.467  -2.293
  24 C   -4.819  -4.182  -8.412
  25 C    5.391  -2.820   2.667
  26 C    2.804   5.829   8.039
  27 C   -5.391   2.820  -2.667
  28 C   -2.804  -5.829  -8.039
  29 C   -6.005  -2.952   1.001
  30 C    0.746   5.696   9.670
  31 C    6.005   2.952  -1.001
  32 C   -0.746  -5.696  -9.670
  33 C   -6.006  -4.651  -0.981
  34 C   -2.189   3.997  -9.724
  35 C    6.006   4.651   0.981
  36 C    2.189  -3.997   9.724
  37 C    3.730   8.300  -4.753
  38 C    1.529  -0.348  -5.919
  39 C   -3.730  -8.300   4.753
  40 C   -1.529   0.348   5.919
  41 C    4.566   6.761  -6.985
  42 C    0.693  -1.888  -3.686
  43 C   -4.566  -6.761   6.985
  44 C   -0.693   1.888   3.686
  45 H    1.799  -7.442   0.108
                                661 S  
                                         1.874E+01 1.968E-02 0.000E+00 0.000E+00
                                         2.826E+00 1.380E-01 0.000E+00 0.000E+00
                                         6.401E-01 4.783E-01 0.000E+00 0.000E+00
                                662 S  
                                         1.756E-01 1.000E+00 0.000E+00 0.000E+00
  46 H    3.460   1.206 -10.779
  47 H   -1.799   7.442  -0.108
  48 H   -3.460  -1.206  10.779
  49 H    1.771  -4.432   3.561
  50 H    6.425   4.217   7.144
  51 H   -1.771   4.432  -3.561
  52 H   -6.425  -4.217  -7.144
  53 H   -4.406  -1.702   1.242
  54 H   -0.852   6.947   9.429
  55 H    4.406   1.702  -1.242
  56 H    0.852  -6.947  -9.429
  57 H   -4.389  -4.720  -2.230
  58 H   -3.806   3.928  -8.475
  59 H    4.389   4.720   2.230
  60 H    3.806  -3.928   8.475
  61 H   -6.522  -0.449   5.002
  62 H    1.264   8.199   5.670
  63 H    6.522   0.449  -5.002
  64 H   -1.264  -8.199  -5.670
  65 H   -6.085  -8.168  -4.136
  66 H   -2.110   0.480  -6.569
  67 H    6.085   8.168   4.136
  68 H    2.110  -0.480   6.569
  69 H    3.368   7.156  -8.611
  70 H    1.890  -1.492  -2.060
  71 H   -3.368  -7.156   8.611
  72 H   -1.890   1.492   2.060
  73 H    6.529   7.083  -7.503
  74 H   -1.270  -1.566  -3.168
  75 H   -6.529  -7.083   7.503
  76 H    1.270   1.566   3.168
  77 H    4.331   4.758  -6.574
  78 H    0.928  -3.890  -4.097
  79 H   -4.331  -4.758   6.574
  80 H   -0.928   3.890   4.097

 *******************************************************************************
 FINISHED BASIS SET HANDLING 
 *******************************************************************************

 INFORMATION **** SET_MPP **** PCRYSTAL CALCULATION
 INFORMATION **** READM2 **** NEW DEFAULT: FOCK/KS MATRIX MIXING SET TO 30 %
 INFORMATION **** READM2 **** NEW DEFAULT: FULL DIRECT SCF MODE
 INFORMATION **** READM2 **** NEW DEFAULT: COULOMB BIPOLAR BUFFER SET TO 32 Mb
 INFORMATION **** READM2 **** NEW DEFAULT: EXCHANGE BIPOLAR BUFFER SET TO 32 Mb

 *******************************************************************************
 NEW DEFAULT: DFT INTEGRATION GRID INCREASED TO XLGRID
 NEW DEFAULT: DIIS ACCELERATOR ACTIVE
 USE KEYWORD NODIIS TO TURN IT OFF
 *******************************************************************************

 INFORMATION **** RDDFTP **** PBEh-3c calculation
 INFORMATION **** RDDFTP **** PBEh hybrid functional combined with D3 and gCP

PLEASE CITE:
(1) PBEh-3c Reference
 S. Grimme, J. G. Brandenburg, C. Bannwarth, and A. Hansen, 
 J. Chem. Phys. 143, 054107 (2015)
(2) DFT-D3 Reference
 S. Grimme, J. Antony, S. Ehrlich, and H. Krieg, J. Chem. Phys. 132, 154104 (2010)
(3) gCP Reference
 H. Kruse and S. Grimme J. Chem. Phys, 136, 154101 (2012)
 J. G. Brandenburg, M. Alessio, B. Civalleri, M. F. Peintinger
 T. Bredow, and S. Grimme, J. Phys. Chem. A, 117, 9282 (2013) 

 WARNING **** RDDFTP **** PBEh-3c has to be combined with def2-mSVP basis set
 WARNING **** RDDFTP **** Note: Harmonic frequencies are scaled by 0.95
 WARNING **** RDDFTP **** as recommended in original publication
 INFORMATION **** TOLDEE **** SCF TOL ON TOTAL ENERGY SET TO           9
 INFORMATION **** TOLINTEG **** COULOMB AND EXCHANGE SERIES TOLERANCES MODIFIED
 INFORMATION **** MAXCYCLE **** MAX NUMBER OF SCF CYCLES SET TO          30
 WARNING **** READM2 **** PROBABLE LOSS IN FREQCALC ACCURACY; SCF TOL LT          10
 *******************************************************************************
 N. OF ATOMS PER CELL        80  COULOMB OVERLAP TOL         (T1) 10**   -8
 NUMBER OF SHELLS           380  COULOMB PENETRATION TOL     (T2) 10**   -8
 NUMBER OF AO               732  EXCHANGE OVERLAP TOL        (T3) 10**   -8
 N. OF ELECTRONS PER CELL   320  EXCHANGE PSEUDO OVP (F(G))  (T4) 10**   -8
 CORE ELECTRONS PER CELL     88  EXCHANGE PSEUDO OVP (P(G))  (T5) 10**  -24
 N. OF SYMMETRY OPERATORS     4  POLE ORDER IN MONO ZONE                  4
 *******************************************************************************
 TYPE OF CALCULATION :  RESTRICTED CLOSED SHELL
 KOHN-SHAM HAMILTONIAN

 (EXCHANGE)[CORRELATION] FUNCTIONAL:(PBEh-3c)[PBEh-3c]


 HYBRID EXCHANGE - PERCENTAGE OF FOCK EXCHANGE    42.0000

 CAPPA:IS1  4;IS2  4;IS3  2; K PTS MONK NET  18; SYMMOPS:K SPACE   4;G SPACE   4

 *******************************************************************************
 MAX NUMBER OF SCF CYCLES      30  CONVERGENCE ON DELTAP        10**-19
 WEIGHT OF F(I) IN F(I+1)      50% CONVERGENCE ON ENERGY        10**- 9
 SHRINK. FACT.(MONKH.)    4  4  2  NUMBER OF K POINTS IN THE IBZ     18
 SHRINKING FACTOR(GILAT NET)    4  NUMBER OF K POINTS(GILAT NET)     18
 *******************************************************************************
 *** K POINTS COORDINATES (OBLIQUE COORDINATES IN UNITS OF IS =  4)
   1-R(  0  0  0)   2-C(  1  0  0)   3-R(  2  0  0)   4-C(  0  1  0)
   5-C(  1  1  0)   6-C(  2  1  0)   7-R(  0  2  0)   8-C(  1  2  0)
   9-R(  2  2  0)  10-R(  0  0  1)  11-C(  1  0  1)  12-R(  2  0  1)
  13-C(  0  1  1)  14-C(  1  1  1)  15-C(  2  1  1)  16-R(  0  2  1)
  17-C(  1  2  1)  18-R(  2  2  1)

 DIRECT LATTICE VECTORS COMPON. (A.U.)     RECIP. LATTICE VECTORS COMPON. (A.U.) 
        X            Y            Z              X            Y            Z
   13.4535822    0.0000000    0.0337880      0.4664497   -0.0000000    0.2298497
    0.0000000   17.2967221    0.0000000     -0.0000000    0.3632587   -0.0000000
  -10.5169383    0.0000000   21.3427399     -0.0007384   -0.0000000    0.2940306

 DISK SPACE FOR EIGENVECTORS (FTN 10)    15003072 REALS

 SYMMETRY ADAPTION OF THE BLOCH FUNCTIONS ENABLED
 TTTTTTTTTTTTTTTTTTTTTTTTTTTTTT gordsh1     TELAPSE        4.42 TCPU        2.19

 MATRIX SIZE: P(G) 2321164, F(G)  216454, P(G) IRR  294414, F(G) IRR   54908
 MAX G-VECTOR INDEX FOR 1- AND 2-ELECTRON INTEGRALS  95

 TTTTTTTTTTTTTTTTTTTTTTTTTTTTTT INPUT       TELAPSE        4.58 TCPU        2.34

 NEIGHBORS OF THE NON-EQUIVALENT ATOMS

 N = NUMBER OF NEIGHBORS AT DISTANCE R
    ATOM  N     R/ANG      R/AU   NEIGHBORS (ATOM LABELS AND CELL INDICES)
   1 O    1     0.9851     1.8616   61 H    1 0 0
   1 O    1     1.3479     2.5472   25 C    0 0 0
   1 O    1     2.0047     3.7884   68 H    0 0 0
   1 O    1     2.3577     4.4555   21 C    0 0 0
   1 O    1     2.4018     4.5387   29 C    1 0 0
   1 O    1     2.5966     4.9069   49 H    0 0 0

   5 O    1     1.2330     2.3301   37 C    0 0 0
   5 O    1     1.6719     3.1595   64 H    0 1 0
   5 O    1     2.2614     4.2734    9 N    0 1 0
   5 O    1     2.3906     4.5176   41 C    0 0 0
   5 O    1     2.3927     4.5215   45 H    0 1 0
   5 O    1     2.5969     4.9074   78 H    0 1 0

   9 N    1     1.0141     1.9164   65 H    1 0 0
   9 N    1     1.3378     2.5282   37 C    0-1 0
   9 N    1     1.4053     2.6557   13 C    0 0 0
   9 N    1     2.2614     4.2734    5 O    0-1 0
   9 N    1     2.3826     4.5025   33 C    1 0 0
   9 N    1     2.4000     4.5353   41 C    0-1 0

  13 C    1     1.3903     2.6272   17 C    0 0 0
  13 C    1     1.3916     2.6298   33 C    1 0 0
  13 C    1     1.4053     2.6557    9 N    0 0 0
  13 C    1     2.0481     3.8704   65 H    1 0 0
  13 C    1     2.1454     4.0542   57 H    1 0 0
  13 C    1     2.1549     4.0722   45 H    0 0 0

  17 C    1     1.0771     2.0355   45 H    0 0 0
  17 C    1     1.3868     2.6207   21 C    0 0 0
  17 C    1     1.3903     2.6272   13 C    0 0 0
  17 C    1     2.1315     4.0279   49 H    0 0 0
  17 C    1     2.3922     4.5206   33 C    1 0 0
  17 C    1     2.4178     4.5689   25 C    0 0 0

  21 C    1     1.0826     2.0458   49 H    0 0 0
  21 C    1     1.3868     2.6207   17 C    0 0 0
  21 C    1     1.3912     2.6289   25 C    0 0 0
  21 C    1     2.1244     4.0146   45 H    0 0 0
  21 C    1     2.3577     4.4555    1 O    0 0 0
  21 C    1     2.3940     4.5240   29 C    1 0 0

  25 C    1     1.3479     2.5472    1 O    0 0 0
  25 C    1     1.3912     2.6289   21 C    0 0 0
  25 C    1     1.3916     2.6297   29 C    1 0 0
  25 C    1     1.9519     3.6886   61 H    1 0 0
  25 C    1     2.1497     4.0624   49 H    0 0 0
  25 C    1     2.1533     4.0691   53 H    1 0 0

  29 C    1     1.0816     2.0439   53 H    0 0 0
  29 C    1     1.3816     2.6109   33 C    0 0 0
  29 C    1     1.3916     2.6297   25 C   -1 0 0
  29 C    1     2.1287     4.0227   57 H    0 0 0
  29 C    1     2.3940     4.5240   21 C   -1 0 0
  29 C    1     2.4018     4.5387    1 O   -1 0 0

  33 C    1     1.0822     2.0451   57 H    0 0 0
  33 C    1     1.3816     2.6109   29 C    0 0 0
  33 C    1     1.3916     2.6298   13 C   -1 0 0
  33 C    1     2.1301     4.0253   53 H    0 0 0
  33 C    1     2.3826     4.5025    9 N   -1 0 0
  33 C    1     2.3922     4.5206   17 C   -1 0 0

  37 C    1     1.2330     2.3301    5 O    0 0 0
  37 C    1     1.3378     2.5282    9 N    0 1 0
  37 C    1     1.5016     2.8377   41 C    0 0 0
  37 C    1     2.0047     3.7884   65 H    1 1 0
  37 C    1     2.1315     4.0279   77 H    0 0 0
  37 C    1     2.1382     4.0406   69 H    0 0 0

  41 C    1     1.0877     2.0555   73 H    0 0 0
  41 C    1     1.0886     2.0572   69 H    0 0 0
  41 C    1     1.0888     2.0576   77 H    0 0 0
  41 C    1     1.5016     2.8377   37 C    0 0 0
  41 C    1     2.3906     4.5176    5 O    0 0 0
  41 C    1     2.4000     4.5353    9 N    0 1 0

  45 H    1     1.0771     2.0355   17 C    0 0 0
  45 H    1     2.1244     4.0146   21 C    0 0 0
  45 H    1     2.1549     4.0722   13 C    0 0 0
  45 H    1     2.2950     4.3369   47 H    0-1 0
  45 H    1     2.3927     4.5215    5 O    0-1 0
  45 H    1     2.4243     4.5813   49 H    0 0 0

  49 H    1     1.0826     2.0458   21 C    0 0 0
  49 H    1     2.1315     4.0279   17 C    0 0 0
  49 H    1     2.1497     4.0624   25 C    0 0 0
  49 H    1     2.4243     4.5813   45 H    0 0 0
  49 H    1     2.5966     4.9069    1 O    0 0 0
  49 H    1     2.6342     4.9780   68 H    0 0 0

  53 H    1     1.0816     2.0439   29 C    0 0 0
  53 H    1     2.1301     4.0253   33 C    0 0 0
  53 H    1     2.1533     4.0691   25 C   -1 0 0
  53 H    1     2.1948     4.1475   72 H    0 0 0
  53 H    1     2.3773     4.4925   61 H    0 0 0
  53 H    1     2.4347     4.6010   57 H    0 0 0

  57 H    1     1.0822     2.0451   33 C    0 0 0
  57 H    1     2.1287     4.0227   29 C    0 0 0
  57 H    1     2.1454     4.0542   13 C   -1 0 0
  57 H    1     2.2697     4.2891   65 H    0 0 0
  57 H    1     2.3991     4.5337   74 H    0 0 0
  57 H    1     2.4347     4.6010   53 H    0 0 0

  61 H    1     0.9851     1.8616    1 O   -1 0 0
  61 H    1     1.6719     3.1595    8 O    0 0 0
  61 H    1     1.9519     3.6886   25 C   -1 0 0
  61 H    1     2.3773     4.4925   53 H    0 0 0
  61 H    1     2.5120     4.7471   29 C    0 0 0
  61 H    1     2.6771     5.0590   68 H   -1 0 0

  65 H    1     1.0141     1.9164    9 N   -1 0 0
  65 H    1     2.0047     3.7884    4 O    0 0 0
  65 H    1     2.0047     3.7884   37 C   -1-1 0
  65 H    1     2.0481     3.8704   13 C   -1 0 0
  65 H    1     2.1469     4.0570   73 H   -1-1 0
  65 H    1     2.2697     4.2891   57 H    0 0 0

  69 H    1     1.0886     2.0572   41 C    0 0 0
  69 H    1     1.7409     3.2897   77 H    0 0 0
  69 H    1     1.7725     3.3495   73 H    0 0 0
  69 H    1     2.1382     4.0406   37 C    0 0 0
  69 H    1     2.1948     4.1475   56 H    0 1 0
  69 H    1     2.6401     4.9890    5 O    0 0 0

  73 H    1     1.0877     2.0555   41 C    0 0 0
  73 H    1     1.7626     3.3309   77 H    0 0 0
  73 H    1     1.7725     3.3495   69 H    0 0 0
  73 H    1     2.1469     4.0570   65 H    1 1 0
  73 H    1     2.1741     4.1085   37 C    0 0 0
  73 H    1     2.3991     4.5337   58 H    1 0 0

  77 H    1     1.0888     2.0576   41 C    0 0 0
  77 H    1     1.7409     3.2897   69 H    0 0 0
  77 H    1     1.7626     3.3309   73 H    0 0 0
  77 H    1     2.1315     4.0279   37 C    0 0 0
  77 H    1     2.5969     4.9074    6 O    0 0 0
  77 H    1     2.6903     5.0840   63 H    0 0 0


 SYMMETRY ALLOWED INTERNAL DEGREE(S) OF FREEDOM:  60
 TTTTTTTTTTTTTTTTTTTTTTTTTTTTTT SYMM        TELAPSE        4.61 TCPU        2.37
 TTTTTTTTTTTTTTTTTTTTTTTTTTTTTT INT_SCREEN  TELAPSE        4.98 TCPU        2.74

 *******************************************************************************
 *                                                                             *
 *                                                                             *
 *         FFFFF  RRRR   EEEE   QQQ   U   U  EEEE  N   N   CCC  Y   Y          *
 *         F      R   R  E     Q   Q  U   U  E     NN  N  C      Y Y           *
 *         FFF    RRRR   EEEE  Q   Q  U   U  EEEE  N N N  C       Y            *
 *         F      R   R  E     Q  QQ  U   U  E     N  NN  C       Y            *
 *         F      R   R  EEEE   QQ Q   UUU   EEEE  N   N   CCC    Y            *
 *                                                                             *
 *                                                                             *
 * CALCULATION OF PHONON FREQUENCIES AT THE GAMMA POINT.                       *
 *                                                                             *
 * SYMMETRY IS EXPLOITED TO BUILD THE TOTAL HESSIAN MATRIX.                    *
 * (F. PASCALE PHD THESIS TURIN-PARIS 2002)                                    *
 *                                                                             *
 *******************************************************************************


 * INTENSITIES COMPUTED VIA THE BERRY PHASE APPROACH                           *
 *                                                                             *
 * REFERENCES TO BE QUOTED WHEN USING THIS MODULE:                             *
 *                                                                             *
 * F. Pascale, C.M. Zicovich-Wilson, F. Lopez, B. Civalleri                    *
 * R. Orlando, R. Dovesi                                                       *
 * The calculation of the vibration frequencies of crystalline                 *
 * compounds and its implementation in the CRYSTAL code                        *
 * J. Comput. Chem. 25 (2004) 888-897                                          *
 *                                                                             *
 * C.M. Zicovich-Wilson, F. Pascale, C. Roetti, V.R. Saunders,                 *
 * R. Orlando, R. Dovesi                                                       *
 * The calculation of the vibration frequencies of alpha-quartz:               *
 * the effect of hamiltonian and basis set                                     *
 * J. Comput. Chem. 25 (2004) 1873-1881                                        *
 *******************************************************************************



 ATOMS ISOTOPIC MASS (AMU) FOR FREQUENCY CALCULATION 

    1 O      15.9949    2 O      15.9949    3 O      15.9949    4 O      15.9949
    5 O      15.9949    6 O      15.9949    7 O      15.9949    8 O      15.9949
    9 N      14.0031   10 N      14.0031   11 N      14.0031   12 N      14.0031
   13 C      12.0000   14 C      12.0000   15 C      12.0000   16 C      12.0000
   17 C      12.0000   18 C      12.0000   19 C      12.0000   20 C      12.0000
   21 C      12.0000   22 C      12.0000   23 C      12.0000   24 C      12.0000
   25 C      12.0000   26 C      12.0000   27 C      12.0000   28 C      12.0000
   29 C      12.0000   30 C      12.0000   31 C      12.0000   32 C      12.0000
   33 C      12.0000   34 C      12.0000   35 C      12.0000   36 C      12.0000
   37 C      12.0000   38 C      12.0000   39 C      12.0000   40 C      12.0000
   41 C      12.0000   42 C      12.0000   43 C      12.0000   44 C      12.0000
   45 H       1.0078   46 H       1.0078   47 H       1.0078   48 H       1.0078
   49 H       1.0078   50 H       1.0078   51 H       1.0078   52 H       1.0078
   53 H       1.0078   54 H       1.0078   55 H       1.0078   56 H       1.0078
   57 H       1.0078   58 H       1.0078   59 H       1.0078   60 H       1.0078
   61 H       1.0078   62 H       1.0078   63 H       1.0078   64 H       1.0078
   65 H       1.0078   66 H       1.0078   67 H       1.0078   68 H       1.0078
   69 H       1.0078   70 H       1.0078   71 H       1.0078   72 H       1.0078
   73 H       1.0078   74 H       1.0078   75 H       1.0078   76 H       1.0078
   77 H       1.0078   78 H       1.0078   79 H       1.0078   80 H       1.0078

 INFORMATION CONCERNING THE SCF+GRADIENT CALCULATIONS REQUIRED FOR
 GENERATING FREQUENCIES. IN PRINCIPLE 3N+1 SCF + GRADIENT
 CALCULATIONS  ARE REQUIRED;
 FOR EACH OF THEM THE REMAINING POINT SYMMETRY IS INDICATED.
 POINT SYMMETRY PERMITS TO GENERATE GRADIENTS FOR DISPLACEMENT B 
 STARTING FROM THE GRADIENT GENERATED BY DISPLACEMENT A.

   N   LABEL SYMBOL DISPLACEMENT     SYM. 

   1     EQUILIBRIUM GEOMETRY            4

   2      1   O            DX           1
   3      1   O            DY           1
   4      1   O            DZ           1
   5      5   O            DX           1
   6      5   O            DY           1
   7      5   O            DZ           1
   8      9   N            DX           1
   9      9   N            DY           1
  10      9   N            DZ           1
  11     13   C            DX           1
  12     13   C            DY           1
  13     13   C            DZ           1
  14     17   C            DX           1
  15     17   C            DY           1
  16     17   C            DZ           1
  17     21   C            DX           1
  18     21   C            DY           1
  19     21   C            DZ           1
  20     25   C            DX           1
  21     25   C            DY           1
  22     25   C            DZ           1
  23     29   C            DX           1
  24     29   C            DY           1
  25     29   C            DZ           1
  26     33   C            DX           1
  27     33   C            DY           1
  28     33   C            DZ           1
  29     37   C            DX           1
  30     37   C            DY           1
  31     37   C            DZ           1
  32     41   C            DX           1
  33     41   C            DY           1
  34     41   C            DZ           1
  35     45   H            DX           1
  36     45   H            DY           1
  37     45   H            DZ           1
  38     49   H            DX           1
  39     49   H            DY           1
  40     49   H            DZ           1
  41     53   H            DX           1
  42     53   H            DY           1
  43     53   H            DZ           1
  44     57   H            DX           1
  45     57   H            DY           1
  46     57   H            DZ           1
  47     61   H            DX           1
  48     61   H            DY           1
  49     61   H            DZ           1
  50     65   H            DX           1
  51     65   H            DY           1
  52     65   H            DZ           1
  53     69   H            DX           1
  54     69   H            DY           1
  55     69   H            DZ           1
  56     73   H            DX           1
  57     73   H            DY           1
  58     73   H            DZ           1
  59     77   H            DX           1
  60     77   H            DY           1
  61     77   H            DZ           1
 USE OF RESIDUAL SYMMETRY AFTER DISPLACEMENT

 NUMERICAL GRADIENT COMPUTED WITH A SINGLE DISPLACEMENT (+DX) FOR EACH
 CARTESIAN COORDINATE WITH RESPECT TO THE EQUILIBRIUM CONFIGURATION
 DX=  0.003 ANGSTROM
 NUMBER OF IRREDUCIBLE ATOMS                    20
 NUMBER OF SCF+GRADIENT CALCULATIONS            61

  ATOM  SYMOP  ORDER
    1      1      1
    5      1      1
    9      1      1
   13      1      1
   17      1      1
   21      1      1
   25      1      1
   29      1      1
   33      1      1
   37      1      1
   41      1      1
   45      1      1
   49      1      1
   53      1      1
   57      1      1
   61      1      1
   65      1      1
   69      1      1
   73      1      1
   77      1      1

 ATOM  : IRREDUCIBLE ATOM
 SYMOP : NUMBER OF SYMMETRY OPERATORS THAT DOESN'T MOVE THE IRREDUCIBLE ATOM
 ORDER : MAXIMUM ORDER AMONG THE OPERATORS OF THE IRREDUCIBLE ATOM

 *******************************************************************************


 GCALCO - MAX INDICES DIRECT LATTICE VECTOR    20    14    11
 NO.OF VECTORS CREATED 6999 STARS 1868 RMAX   202.29907 BOHR

 CAPPA:IS1  4;IS2  4;IS3  2; K PTS MONK NET  18; SYMMOPS:K SPACE   4;G SPACE   4

 TTTTTTTTTTTTTTTTTTTTTTTTTTTTTT gordsh1     TELAPSE        5.01 TCPU        2.77

 MATRIX SIZE: P(G) 2321164, F(G)  216454, P(G) IRR  294414, F(G) IRR   54908
 MAX G-VECTOR INDEX FOR 1- AND 2-ELECTRON INTEGRALS  95

 TTTTTTTTTTTTTTTTTTTTTTTTTTTTTT INPUT       TELAPSE        5.03 TCPU        2.78

 SYMMETRY ALLOWED INTERNAL DEGREE(S) OF FREEDOM:  60
 TTTTTTTTTTTTTTTTTTTTTTTTTTTTTT SYMM        TELAPSE        5.05 TCPU        2.81
 TTTTTTTTTTTTTTTTTTTTTTTTTTTTTT INT_SCREEN  TELAPSE        5.06 TCPU        2.82
 INFORMATION **** EXCBUF **** EXCH. BIPO BUFFER: WORDS USED =     3944538

 DFT PARAMETERS

     ATOM       ELECTRONS   NET CHARGE   R(ANGSTROM)
   1   8  O       8.0000      0.0000     0.74000000
   9   7  N       7.0000      0.0000     0.74000000
  13   6  C       6.0000      0.0000     0.77000000
  45   1  H       1.0000      0.0000     1.11000000

 SIZE OF GRID=     984865
 TTTTTTTTTTTTTTTTTTTTTTTTTTTTTT MAKE_GRID2  TELAPSE        8.73 TCPU        6.49
 BECKE WEIGHT FUNCTION
 RADSAFE =     2.00
 TOLERANCES - DENSITY:10**- 6; POTENTIAL:10**- 9; GRID WGT:10**-14

 RADIAL INTEGRATION  - INTERVALS (POINTS,UPPER LIMIT):            1( 99,  4.0*R)

 ANGULAR INTEGRATION - INTERVALS (ACCURACY LEVEL [N. POINTS] UPPER LIMIT):
  1(  6[ 146]   0.2)  2( 11[ 302]   0.5)  3( 14[ 590]   0.9)  4( 18[1454]   3.5)
  5( 14[ 590]9999.0)
 TTTTTTTTTTTTTTTTTTTTTTTTTTTTTT INT_CALC    TELAPSE        8.79 TCPU        6.54

 *******************************************************************************
 F1 vol step-4 freq - PBEh-3c                                                    
 CRYSTAL - SCF - TYPE OF CALCULATION :  RESTRICTED CLOSED SHELL
 *******************************************************************************

 CAPPA:IS1  4;IS2  4;IS3  2; K PTS MONK NET  18; SYMMOPS:K SPACE   4;G SPACE   4

 TTTTTTTTTTTTTTTTTTTTTTTTTTTTTT SDIK        TELAPSE        9.04 TCPU        6.80

 AAAAAAAAAAAAAAAAAAAAAAAAAAAAAAAAAAAAAAAAAAAAAAAAAAAAAAAAAAAAAAAAAAAAAAAAAAAAAAA
         ATOMIC WAVEFUNCTION(S)


 NUCLEAR CHARGE  8.0  SYMMETRY SPECIES            S    P
 N. ELECTRONS    8.0  NUMBER OF PRIMITIVE GTOS    8    4
                      NUMBER OF CONTRACTED GTOS   4    2
                      NUMBER OF CLOSED SHELLS     2    0
                      OPEN SHELL OCCUPATION       0    4

  ZNUC SCFIT  TOTAL HF ENERGY   KINETIC ENERGY   VIRIAL THEOREM ACCURACY
   8.0  12   -7.477373220E+01  7.477365593E+01 -2.000001020E+00  3.8E-06

 NUCLEAR CHARGE  7.0  SYMMETRY SPECIES            S    P
 N. ELECTRONS    7.0  NUMBER OF PRIMITIVE GTOS    8    4
                      NUMBER OF CONTRACTED GTOS   4    2
                      NUMBER OF CLOSED SHELLS     2    0
                      OPEN SHELL OCCUPATION       0    3

  ZNUC SCFIT  TOTAL HF ENERGY   KINETIC ENERGY   VIRIAL THEOREM ACCURACY
   7.0   9   -5.437948210E+01  5.437948297E+01 -1.999999984E+00  1.2E-06

 NUCLEAR CHARGE  6.0  SYMMETRY SPECIES            S    P
 N. ELECTRONS    6.0  NUMBER OF PRIMITIVE GTOS    8    4
                      NUMBER OF CONTRACTED GTOS   4    2
                      NUMBER OF CLOSED SHELLS     2    0
                      OPEN SHELL OCCUPATION       0    2

  ZNUC SCFIT  TOTAL HF ENERGY   KINETIC ENERGY   VIRIAL THEOREM ACCURACY
   6.0   9   -3.767634636E+01  3.767630973E+01 -2.000000972E+00  4.2E-06

 NUCLEAR CHARGE  1.0  SYMMETRY SPECIES            S
 N. ELECTRONS    1.0  NUMBER OF PRIMITIVE GTOS    4
                      NUMBER OF CONTRACTED GTOS   2
                      NUMBER OF CLOSED SHELLS     0
                      OPEN SHELL OCCUPATION       1

  ZNUC SCFIT  TOTAL HF ENERGY   KINETIC ENERGY   VIRIAL THEOREM ACCURACY
   1.0   1   -4.977266687E-01  5.190767460E-01 -1.958869132E+00  2.2E-17

 AAAAAAAAAAAAAAAAAAAAAAAAAAAAAAAAAAAAAAAAAAAAAAAAAAAAAAAAAAAAAAAAAAAAAAAAAAAAAAA

 TTTTTTTTTTTTTTTTTTTTTTTTTTTTTT MOQGAD      TELAPSE       10.21 TCPU        7.82
 TTTTTTTTTTTTTTTTTTTTTTTTTTTTTT SHELLXN     TELAPSE       12.50 TCPU       10.10
 TTTTTTTTTTTTTTTTTTTTTTTTTTTTTT MONMO3      TELAPSE       13.57 TCPU       11.17
 NUMERICALLY INTEGRATED DENSITY    319.9998342996
 TTTTTTTTTTTTTTTTTTTTTTTTTTTTTT NUMDFT      TELAPSE       13.92 TCPU       11.52
 CYC   0 ETOT(AU) -2.070839739854E+03 DETOT -2.07E+03 tst  0.00E+00 PX  1.00E+00
 TTTTTTTTTTTTTTTTTTTTTTTTTTTTTT DIIS        TELAPSE       13.96 TCPU       11.56
 TTTTTTTTTTTTTTTTTTTTTTTTTTTTTT FDIK        TELAPSE       14.54 TCPU       12.13
 INSULATING STATE
 TOP OF VALENCE BANDS -    BAND    160; K    1; EIG -2.7998850E-01 AU
 BOTTOM OF VIRTUAL BANDS - BAND    161; K    7; EIG -1.2671896E-01 AU
 INDIRECT ENERGY BAND GAP:   4.1707 eV
 BOTTOM OF VIRTUAL BANDS - BAND    161; K    1; EIG -1.2176016E-01 AU
 TTTTTTTTTTTTTTTTTTTTTTTTTTTTTT PDIG        TELAPSE       14.88 TCPU       12.48
 TTTTTTTTTTTTTTTTTTTTTTTTTTTTTT MOQGAD      TELAPSE       14.89 TCPU       12.48
 TTTTTTTTTTTTTTTTTTTTTTTTTTTTTT SHELLXN     TELAPSE       17.31 TCPU       14.85
 TTTTTTTTTTTTTTTTTTTTTTTTTTTTTT MONMO3      TELAPSE       18.38 TCPU       15.93
 NUMERICALLY INTEGRATED DENSITY    319.9998571905
 TTTTTTTTTTTTTTTTTTTTTTTTTTTTTT NUMDFT      TELAPSE       18.88 TCPU       16.43
 CYC   1 ETOT(AU) -2.057253981765E+03 DETOT  1.36E+01 tst  0.00E+00 PX  1.00E+00
 TTTTTTTTTTTTTTTTTTTTTTTTTTTTTT DIIS        TELAPSE       18.92 TCPU       16.46
 DIIS TEST: 0.17381E+01 AT SCF   CYCLE   1 - MIX   50 %
 TTTTTTTTTTTTTTTTTTTTTTTTTTTTTT FDIK        TELAPSE       19.61 TCPU       17.15
 INSULATING STATE
 TOP OF VALENCE BANDS -    BAND    160; K   10; EIG -2.4734735E-01 AU
 TOP OF VALENCE BANDS -    BAND    160; K    1; EIG -2.4754553E-01 AU
 BOTTOM OF VIRTUAL BANDS - BAND    161; K   16; EIG -4.8010370E-02 AU
 INDIRECT ENERGY BAND GAP:   5.4242 eV
 BOTTOM OF VIRTUAL BANDS - BAND    161; K    1; EIG -4.6834947E-02 AU
 TTTTTTTTTTTTTTTTTTTTTTTTTTTTTT PDIG        TELAPSE       19.95 TCPU       17.50
 TTTTTTTTTTTTTTTTTTTTTTTTTTTTTT MOQGAD      TELAPSE       19.96 TCPU       17.50
 TTTTTTTTTTTTTTTTTTTTTTTTTTTTTT SHELLXN     TELAPSE       22.34 TCPU       19.88
 TTTTTTTTTTTTTTTTTTTTTTTTTTTTTT MONMO3      TELAPSE       23.47 TCPU       21.01
 NUMERICALLY INTEGRATED DENSITY    319.9998519401
 TTTTTTTTTTTTTTTTTTTTTTTTTTTTTT NUMDFT      TELAPSE       23.72 TCPU       21.27
 CYC   2 ETOT(AU) -2.057713233768E+03 DETOT -4.59E-01 tst  9.78E-04 PX  1.26E-01
 TTTTTTTTTTTTTTTTTTTTTTTTTTTTTT DIIS        TELAPSE       23.75 TCPU       21.30
 DIIS TEST: 0.13948E+00 AT SCF   CYCLE   2 - DIIS ACTIVE - HISTORY:     2 CYCLES
 TTTTTTTTTTTTTTTTTTTTTTTTTTTTTT FDIK        TELAPSE       24.36 TCPU       21.88
 INSULATING STATE
 TOP OF VALENCE BANDS -    BAND    160; K   10; EIG -2.3808648E-01 AU
 TOP OF VALENCE BANDS -    BAND    160; K    1; EIG -2.3828109E-01 AU
 BOTTOM OF VIRTUAL BANDS - BAND    161; K   16; EIG -5.9591684E-03 AU
 INDIRECT ENERGY BAND GAP:   6.3165 eV
 BOTTOM OF VIRTUAL BANDS - BAND    161; K    1; EIG -1.6036641E-03 AU
 TTTTTTTTTTTTTTTTTTTTTTTTTTTTTT PDIG        TELAPSE       24.71 TCPU       22.23
 TTTTTTTTTTTTTTTTTTTTTTTTTTTTTT MOQGAD      TELAPSE       24.72 TCPU       22.23
 TTTTTTTTTTTTTTTTTTTTTTTTTTTTTT SHELLXN     TELAPSE       27.10 TCPU       24.61
 TTTTTTTTTTTTTTTTTTTTTTTTTTTTTT MONMO3      TELAPSE       28.22 TCPU       25.74
 NUMERICALLY INTEGRATED DENSITY    319.9998446671
 TTTTTTTTTTTTTTTTTTTTTTTTTTTTTT NUMDFT      TELAPSE       28.67 TCPU       26.19
 CYC   3 ETOT(AU) -2.057735319569E+03 DETOT -2.21E-02 tst  2.06E-04 PX  4.14E-02
 TTTTTTTTTTTTTTTTTTTTTTTTTTTTTT DIIS        TELAPSE       28.81 TCPU       26.33
 DIIS TEST: 0.77844E-01 AT SCF   CYCLE   3 - DIIS ACTIVE - HISTORY:     3 CYCLES
 TTTTTTTTTTTTTTTTTTTTTTTTTTTTTT FDIK        TELAPSE       29.38 TCPU       26.90
 INSULATING STATE
 TOP OF VALENCE BANDS -    BAND    160; K   10; EIG -2.4799239E-01 AU
 TOP OF VALENCE BANDS -    BAND    160; K    1; EIG -2.4827104E-01 AU
 BOTTOM OF VIRTUAL BANDS - BAND    161; K   16; EIG -1.2596753E-02 AU
 INDIRECT ENERGY BAND GAP:   6.4054 eV
 BOTTOM OF VIRTUAL BANDS - BAND    161; K    1; EIG -7.5454851E-03 AU
 TTTTTTTTTTTTTTTTTTTTTTTTTTTTTT PDIG        TELAPSE       29.73 TCPU       27.24
 TTTTTTTTTTTTTTTTTTTTTTTTTTTTTT MOQGAD      TELAPSE       29.73 TCPU       27.25
 TTTTTTTTTTTTTTTTTTTTTTTTTTTTTT SHELLXN     TELAPSE       32.11 TCPU       29.62
 TTTTTTTTTTTTTTTTTTTTTTTTTTTTTT MONMO3      TELAPSE       33.23 TCPU       30.74
 NUMERICALLY INTEGRATED DENSITY    319.9998481337
 TTTTTTTTTTTTTTTTTTTTTTTTTTTTTT NUMDFT      TELAPSE       33.48 TCPU       31.00
 CYC   4 ETOT(AU) -2.057752909315E+03 DETOT -1.76E-02 tst  1.15E-04 PX  3.21E-02
 TTTTTTTTTTTTTTTTTTTTTTTTTTTTTT DIIS        TELAPSE       33.51 TCPU       31.03
 DIIS TEST: 0.89208E-02 AT SCF   CYCLE   4 - DIIS ACTIVE - HISTORY:     4 CYCLES
 TTTTTTTTTTTTTTTTTTTTTTTTTTTTTT FDIK        TELAPSE       34.10 TCPU       31.61
 INSULATING STATE
 TOP OF VALENCE BANDS -    BAND    160; K   10; EIG -2.4561185E-01 AU
 TOP OF VALENCE BANDS -    BAND    160; K    1; EIG -2.4587365E-01 AU
 BOTTOM OF VIRTUAL BANDS - BAND    161; K   16; EIG -1.0462301E-02 AU
 INDIRECT ENERGY BAND GAP:   6.3987 eV
 BOTTOM OF VIRTUAL BANDS - BAND    161; K    1; EIG -5.7070796E-03 AU
 TTTTTTTTTTTTTTTTTTTTTTTTTTTTTT PDIG        TELAPSE       34.45 TCPU       31.95
 TTTTTTTTTTTTTTTTTTTTTTTTTTTTTT MOQGAD      TELAPSE       34.45 TCPU       31.96
 TTTTTTTTTTTTTTTTTTTTTTTTTTTTTT SHELLXN     TELAPSE       36.83 TCPU       34.33
 TTTTTTTTTTTTTTTTTTTTTTTTTTTTTT MONMO3      TELAPSE       37.95 TCPU       35.45
 NUMERICALLY INTEGRATED DENSITY    319.9998473013
 TTTTTTTTTTTTTTTTTTTTTTTTTTTTTT NUMDFT      TELAPSE       38.40 TCPU       35.91
 CYC   5 ETOT(AU) -2.057755025025E+03 DETOT -2.12E-03 tst  8.99E-06 PX  8.12E-03
 TTTTTTTTTTTTTTTTTTTTTTTTTTTTTT DIIS        TELAPSE       38.44 TCPU       35.95
 DIIS TEST: 0.77604E-03 AT SCF   CYCLE   5 - DIIS ACTIVE - HISTORY:     5 CYCLES
 TTTTTTTTTTTTTTTTTTTTTTTTTTTTTT FDIK        TELAPSE       39.02 TCPU       36.52
 INSULATING STATE
 TOP OF VALENCE BANDS -    BAND    160; K   10; EIG -2.4531817E-01 AU
 TOP OF VALENCE BANDS -    BAND    160; K    1; EIG -2.4558502E-01 AU
 BOTTOM OF VIRTUAL BANDS - BAND    161; K   16; EIG -1.0210935E-02 AU
 INDIRECT ENERGY BAND GAP:   6.3976 eV
 BOTTOM OF VIRTUAL BANDS - BAND    161; K    1; EIG -5.3525095E-03 AU
 TTTTTTTTTTTTTTTTTTTTTTTTTTTTTT PDIG        TELAPSE       39.37 TCPU       36.87
 TTTTTTTTTTTTTTTTTTTTTTTTTTTTTT MOQGAD      TELAPSE       39.37 TCPU       36.87
 TTTTTTTTTTTTTTTTTTTTTTTTTTTTTT SHELLXN     TELAPSE       41.75 TCPU       39.25
 TTTTTTTTTTTTTTTTTTTTTTTTTTTTTT MONMO3      TELAPSE       42.87 TCPU       40.37
 NUMERICALLY INTEGRATED DENSITY    319.9998471937
 TTTTTTTTTTTTTTTTTTTTTTTTTTTTTT NUMDFT      TELAPSE       43.12 TCPU       40.62
 CYC   6 ETOT(AU) -2.057755201062E+03 DETOT -1.76E-04 tst  1.35E-06 PX  1.62E-03
 TTTTTTTTTTTTTTTTTTTTTTTTTTTTTT DIIS        TELAPSE       43.15 TCPU       40.65
 DIIS TEST: 0.47116E-04 AT SCF   CYCLE   6 - DIIS ACTIVE - HISTORY:     6 CYCLES
 TTTTTTTTTTTTTTTTTTTTTTTTTTTTTT FDIK        TELAPSE       43.73 TCPU       41.23
 INSULATING STATE
 TOP OF VALENCE BANDS -    BAND    160; K   10; EIG -2.4524802E-01 AU
 TOP OF VALENCE BANDS -    BAND    160; K    1; EIG -2.4550914E-01 AU
 BOTTOM OF VIRTUAL BANDS - BAND    161; K   16; EIG -1.0187589E-02 AU
 INDIRECT ENERGY BAND GAP:   6.3963 eV
 BOTTOM OF VIRTUAL BANDS - BAND    161; K    1; EIG -5.3355229E-03 AU
 TTTTTTTTTTTTTTTTTTTTTTTTTTTTTT PDIG        TELAPSE       44.08 TCPU       41.57
 TTTTTTTTTTTTTTTTTTTTTTTTTTTTTT MOQGAD      TELAPSE       44.08 TCPU       41.58
 TTTTTTTTTTTTTTTTTTTTTTTTTTTTTT SHELLXN     TELAPSE       46.45 TCPU       43.94
 TTTTTTTTTTTTTTTTTTTTTTTTTTTTTT MONMO3      TELAPSE       47.58 TCPU       45.08
 NUMERICALLY INTEGRATED DENSITY    319.9998471533
 TTTTTTTTTTTTTTTTTTTTTTTTTTTTTT NUMDFT      TELAPSE       47.84 TCPU       45.33
 CYC   7 ETOT(AU) -2.057755210913E+03 DETOT -9.85E-06 tst  2.03E-07 PX  4.84E-04
 TTTTTTTTTTTTTTTTTTTTTTTTTTTTTT DIIS        TELAPSE       47.87 TCPU       45.36
 DIIS TEST: 0.78228E-05 AT SCF   CYCLE   7 - DIIS ACTIVE - HISTORY:     7 CYCLES
 TTTTTTTTTTTTTTTTTTTTTTTTTTTTTT FDIK        TELAPSE       48.45 TCPU       45.94
 INSULATING STATE
 TOP OF VALENCE BANDS -    BAND    160; K   10; EIG -2.4528289E-01 AU
 TOP OF VALENCE BANDS -    BAND    160; K    1; EIG -2.4554657E-01 AU
 BOTTOM OF VIRTUAL BANDS - BAND    161; K   16; EIG -1.0192227E-02 AU
 INDIRECT ENERGY BAND GAP:   6.3971 eV
 BOTTOM OF VIRTUAL BANDS - BAND    161; K    1; EIG -5.3441557E-03 AU
 TTTTTTTTTTTTTTTTTTTTTTTTTTTTTT PDIG        TELAPSE       48.79 TCPU       46.28
 TTTTTTTTTTTTTTTTTTTTTTTTTTTTTT MOQGAD      TELAPSE       48.80 TCPU       46.29
 TTTTTTTTTTTTTTTTTTTTTTTTTTTTTT SHELLXN     TELAPSE       51.18 TCPU       48.67
 TTTTTTTTTTTTTTTTTTTTTTTTTTTTTT MONMO3      TELAPSE       52.30 TCPU       49.79
 NUMERICALLY INTEGRATED DENSITY    319.9998471526
 TTTTTTTTTTTTTTTTTTTTTTTTTTTTTT NUMDFT      TELAPSE       52.72 TCPU       50.21
 CYC   8 ETOT(AU) -2.057755213275E+03 DETOT -2.36E-06 tst  1.59E-08 PX  1.83E-04
 TTTTTTTTTTTTTTTTTTTTTTTTTTTTTT DIIS        TELAPSE       52.76 TCPU       50.25
 DIIS TEST: 0.29703E-06 AT SCF   CYCLE   8 - DIIS ACTIVE - HISTORY:     8 CYCLES
 TTTTTTTTTTTTTTTTTTTTTTTTTTTTTT FDIK        TELAPSE       53.34 TCPU       50.82
 INSULATING STATE
 TOP OF VALENCE BANDS -    BAND    160; K   10; EIG -2.4529360E-01 AU
 TOP OF VALENCE BANDS -    BAND    160; K    1; EIG -2.4555657E-01 AU
 BOTTOM OF VIRTUAL BANDS - BAND    161; K   16; EIG -1.0198410E-02 AU
 INDIRECT ENERGY BAND GAP:   6.3973 eV
 BOTTOM OF VIRTUAL BANDS - BAND    161; K    1; EIG -5.3488106E-03 AU
 TTTTTTTTTTTTTTTTTTTTTTTTTTTTTT PDIG        TELAPSE       53.69 TCPU       51.17
 TTTTTTTTTTTTTTTTTTTTTTTTTTTTTT MOQGAD      TELAPSE       53.70 TCPU       51.18
 TTTTTTTTTTTTTTTTTTTTTTTTTTTTTT SHELLXN     TELAPSE       56.07 TCPU       53.55
 TTTTTTTTTTTTTTTTTTTTTTTTTTTTTT MONMO3      TELAPSE       57.21 TCPU       54.69
 NUMERICALLY INTEGRATED DENSITY    319.9998471527
 TTTTTTTTTTTTTTTTTTTTTTTTTTTTTT NUMDFT      TELAPSE       57.67 TCPU       55.15
 CYC   9 ETOT(AU) -2.057755213529E+03 DETOT -2.55E-07 tst  1.35E-09 PX  4.88E-05
 TTTTTTTTTTTTTTTTTTTTTTTTTTTTTT DIIS        TELAPSE       57.72 TCPU       55.20
 DIIS TEST: 0.69043E-07 AT SCF   CYCLE   9 - DIIS ACTIVE - HISTORY:     9 CYCLES
 TTTTTTTTTTTTTTTTTTTTTTTTTTTTTT FDIK        TELAPSE       58.30 TCPU       55.77
 INSULATING STATE
 TOP OF VALENCE BANDS -    BAND    160; K   10; EIG -2.4529223E-01 AU
 TOP OF VALENCE BANDS -    BAND    160; K    1; EIG -2.4555553E-01 AU
 BOTTOM OF VIRTUAL BANDS - BAND    161; K   16; EIG -1.0203225E-02 AU
 INDIRECT ENERGY BAND GAP:   6.3971 eV
 BOTTOM OF VIRTUAL BANDS - BAND    161; K    1; EIG -5.3537684E-03 AU
 TTTTTTTTTTTTTTTTTTTTTTTTTTTTTT PDIG        TELAPSE       58.65 TCPU       56.12
 TTTTTTTTTTTTTTTTTTTTTTTTTTTTTT MOQGAD      TELAPSE       58.65 TCPU       56.12
 TTTTTTTTTTTTTTTTTTTTTTTTTTTTTT SHELLXN     TELAPSE       61.02 TCPU       58.50
 TTTTTTTTTTTTTTTTTTTTTTTTTTTTTT MONMO3      TELAPSE       62.15 TCPU       59.62
 NUMERICALLY INTEGRATED DENSITY    319.9998471520
 TTTTTTTTTTTTTTTTTTTTTTTTTTTTTT NUMDFT      TELAPSE       62.65 TCPU       60.12
 CYC  10 ETOT(AU) -2.057755213552E+03 DETOT -2.32E-08 tst  9.71E-11 PX  2.53E-05
 TTTTTTTTTTTTTTTTTTTTTTTTTTTTTT DIIS        TELAPSE       62.71 TCPU       60.18
 DIIS TEST: 0.54700E-08 AT SCF   CYCLE  10 - DIIS ACTIVE - HISTORY:    10 CYCLES
 TTTTTTTTTTTTTTTTTTTTTTTTTTTTTT FDIK        TELAPSE       63.29 TCPU       60.76
 INSULATING STATE
 TOP OF VALENCE BANDS -    BAND    160; K   10; EIG -2.4529215E-01 AU
 TOP OF VALENCE BANDS -    BAND    160; K    1; EIG -2.4555540E-01 AU
 BOTTOM OF VIRTUAL BANDS - BAND    161; K   16; EIG -1.0201160E-02 AU
 INDIRECT ENERGY BAND GAP:   6.3972 eV
 BOTTOM OF VIRTUAL BANDS - BAND    161; K    1; EIG -5.3518548E-03 AU
 TTTTTTTTTTTTTTTTTTTTTTTTTTTTTT PDIG        TELAPSE       63.63 TCPU       61.10
 TTTTTTTTTTTTTTTTTTTTTTTTTTTTTT MOQGAD      TELAPSE       63.64 TCPU       61.11
 TTTTTTTTTTTTTTTTTTTTTTTTTTTTTT SHELLXN     TELAPSE       66.01 TCPU       63.48
 TTTTTTTTTTTTTTTTTTTTTTTTTTTTTT MONMO3      TELAPSE       67.15 TCPU       64.61
 NUMERICALLY INTEGRATED DENSITY    319.9998471515
 TTTTTTTTTTTTTTTTTTTTTTTTTTTTTT NUMDFT      TELAPSE       67.60 TCPU       65.07
 CYC  11 ETOT(AU) -2.057755213567E+03 DETOT -1.50E-08 tst  1.15E-11 PX  5.82E-06
 TTTTTTTTTTTTTTTTTTTTTTTTTTTTTT DIIS        TELAPSE       67.86 TCPU       65.33
 DIIS TEST: 0.43160E-09 AT SCF   CYCLE  11 - DIIS ACTIVE - HISTORY:    11 CYCLES
 TTTTTTTTTTTTTTTTTTTTTTTTTTTTTT FDIK        TELAPSE       68.44 TCPU       65.90
 INSULATING STATE
 TOP OF VALENCE BANDS -    BAND    160; K   10; EIG -2.4529175E-01 AU
 TOP OF VALENCE BANDS -    BAND    160; K    1; EIG -2.4555503E-01 AU
 BOTTOM OF VIRTUAL BANDS - BAND    161; K   16; EIG -1.0201168E-02 AU
 INDIRECT ENERGY BAND GAP:   6.3971 eV
 BOTTOM OF VIRTUAL BANDS - BAND    161; K    1; EIG -5.3517924E-03 AU
 TTTTTTTTTTTTTTTTTTTTTTTTTTTTTT PDIG        TELAPSE       68.78 TCPU       66.25
 TTTTTTTTTTTTTTTTTTTTTTTTTTTTTT MOQGAD      TELAPSE       68.79 TCPU       66.25
 TTTTTTTTTTTTTTTTTTTTTTTTTTTTTT SHELLXN     TELAPSE       71.16 TCPU       68.62
 TTTTTTTTTTTTTTTTTTTTTTTTTTTTTT MONMO3      TELAPSE       73.57 TCPU       71.03
 NUMERICALLY INTEGRATED DENSITY    319.9998471517
 TTTTTTTTTTTTTTTTTTTTTTTTTTTTTT NUMDFT      TELAPSE       73.83 TCPU       71.29
 CYC  12 ETOT(AU) -2.057755213566E+03 DETOT  1.69E-09 tst  1.33E-12 PX  1.57E-06
 TTTTTTTTTTTTTTTTTTTTTTTTTTTTTT DIIS        TELAPSE       73.98 TCPU       71.44
 DIIS TEST: 0.37746E-10 AT SCF   CYCLE  12 - DIIS ACTIVE - HISTORY:    12 CYCLES
 TTTTTTTTTTTTTTTTTTTTTTTTTTTTTT FDIK        TELAPSE       74.56 TCPU       72.02
 INSULATING STATE
 TOP OF VALENCE BANDS -    BAND    160; K   10; EIG -2.4529162E-01 AU
 TOP OF VALENCE BANDS -    BAND    160; K    1; EIG -2.4555490E-01 AU
 BOTTOM OF VIRTUAL BANDS - BAND    161; K   16; EIG -1.0200993E-02 AU
 INDIRECT ENERGY BAND GAP:   6.3971 eV
 BOTTOM OF VIRTUAL BANDS - BAND    161; K    1; EIG -5.3516447E-03 AU
 TTTTTTTTTTTTTTTTTTTTTTTTTTTTTT PDIG        TELAPSE       74.91 TCPU       72.36
 TTTTTTTTTTTTTTTTTTTTTTTTTTTTTT MOQGAD      TELAPSE       74.91 TCPU       72.37
 TTTTTTTTTTTTTTTTTTTTTTTTTTTTTT SHELLXN     TELAPSE       77.30 TCPU       74.74
 TTTTTTTTTTTTTTTTTTTTTTTTTTTTTT MONMO3      TELAPSE       78.41 TCPU       75.85
 NUMERICALLY INTEGRATED DENSITY    319.9998471516
 TTTTTTTTTTTTTTTTTTTTTTTTTTTTTT NUMDFT      TELAPSE       78.83 TCPU       76.27
 CYC  13 ETOT(AU) -2.057755213566E+03 DETOT -2.50E-11 tst  1.51E-13 PX  4.45E-07
 TTTTTTTTTTTTTTTTTTTTTTTTTTTTTT DIIS        TELAPSE       78.87 TCPU       76.31
 DIIS TEST: 0.21446E-11 AT SCF   CYCLE  13 - DIIS ACTIVE - HISTORY:    13 CYCLES
 TTTTTTTTTTTTTTTTTTTTTTTTTTTTTT FDIK        TELAPSE       79.45 TCPU       76.88
 INSULATING STATE
[...]
Note: The following floating-point exceptions are signalling: IEEE_UNDERFLOW_FLAG IEEE_DENORMAL
Note: The following floating-point exceptions are signalling: IEEE_UNDERFLOW_FLAG IEEE_DENORMAL
Note: The following floating-point exceptions are signalling: IEEE_UNDERFLOW_FLAG IEEE_DENORMAL
Note: The following floating-point exceptions are signalling: IEEE_UNDERFLOW_FLAG IEEE_DENORMAL
Note: The following floating-point exceptions are signalling: IEEE_UNDERFLOW_FLAG IEEE_DENORMAL
Note: The following floating-point exceptions are signalling: IEEE_UNDERFLOW_FLAG IEEE_DENORMAL
Note: The following floating-point exceptions are signalling: IEEE_UNDERFLOW_FLAG IEEE_DENORMAL
Note: The following floating-point exceptions are signalling: IEEE_UNDERFLOW_FLAG IEEE_DENORMAL
Note: The following floating-point exceptions are signalling: IEEE_UNDERFLOW_FLAG IEEE_DENORMAL
Note: The following floating-point exceptions are signalling: IEEE_UNDERFLOW_FLAG IEEE_DENORMAL
Note: The following floating-point exceptions are signalling: IEEE_UNDERFLOW_FLAG IEEE_DENORMAL
Note: The following floating-point exceptions are signalling: IEEE_UNDERFLOW_FLAG IEEE_DENORMAL
Note: The following floating-point exceptions are signalling: IEEE_UNDERFLOW_FLAG IEEE_DENORMAL
Note: The following floating-point exceptions are signalling: IEEE_UNDERFLOW_FLAG IEEE_DENORMAL
Note: The following floating-point exceptions are signalling: IEEE_UNDERFLOW_FLAG IEEE_DENORMAL
Note: The following floating-point exceptions are signalling: IEEE_UNDERFLOW_FLAG IEEE_DENORMAL
Note: The following floating-point exceptions are signalling: IEEE_UNDERFLOW_FLAG IEEE_DENORMAL
Note: The following floating-point exceptions are signalling: IEEE_UNDERFLOW_FLAG IEEE_DENORMAL
Note: The following floating-point exceptions are signalling: IEEE_UNDERFLOW_FLAG IEEE_DENORMAL
Note: The following floating-point exceptions are signalling: IEEE_UNDERFLOW_FLAG IEEE_DENORMAL
Note: The following floating-point exceptions are signalling: IEEE_UNDERFLOW_FLAG IEEE_DENORMAL
Note: The following floating-point exceptions are signalling: IEEE_UNDERFLOW_FLAG IEEE_DENORMAL
Note: The following floating-point exceptions are signalling: IEEE_UNDERFLOW_FLAG IEEE_DENORMAL
Note: The following floating-point exceptions are signalling: IEEE_UNDERFLOW_FLAG IEEE_DENORMAL
Note: The following floating-point exceptions are signalling: IEEE_UNDERFLOW_FLAG IEEE_DENORMAL
Note: The following floating-point exceptions are signalling: IEEE_UNDERFLOW_FLAG IEEE_DENORMAL
Note: The following floating-point exceptions are signalling: IEEE_UNDERFLOW_FLAG IEEE_DENORMAL
Note: The following floating-point exceptions are signalling: IEEE_UNDERFLOW_FLAG IEEE_DENORMAL
Note: The following floating-point exceptions are signalling: IEEE_UNDERFLOW_FLAG IEEE_DENORMAL
Note: The following floating-point exceptions are signalling: IEEE_UNDERFLOW_FLAG IEEE_DENORMAL
Note: The following floating-point exceptions are signalling: IEEE_UNDERFLOW_FLAG IEEE_DENORMAL
Note: The following floating-point exceptions are signalling: IEEE_UNDERFLOW_FLAG IEEE_DENORMAL
Note: The following floating-point exceptions are signalling: IEEE_UNDERFLOW_FLAG IEEE_DENORMAL
Note: The following floating-point exceptions are signalling: IEEE_UNDERFLOW_FLAG IEEE_DENORMAL
Note: The following floating-point exceptions are signalling: IEEE_UNDERFLOW_FLAG IEEE_DENORMAL
Note: The following floating-point exceptions are signalling: IEEE_UNDERFLOW_FLAG IEEE_DENORMAL
Note: The following floating-point exceptions are signalling: IEEE_UNDERFLOW_FLAG IEEE_DENORMAL
Note: The following floating-point exceptions are signalling: IEEE_UNDERFLOW_FLAG IEEE_DENORMAL
Note: The following floating-point exceptions are signalling: IEEE_UNDERFLOW_FLAG IEEE_DENORMAL
Note: The following floating-point exceptions are signalling: IEEE_UNDERFLOW_FLAG IEEE_DENORMAL
Note: The following floating-point exceptions are signalling: IEEE_UNDERFLOW_FLAG IEEE_DENORMAL
Note: The following floating-point exceptions are signalling: IEEE_UNDERFLOW_FLAG IEEE_DENORMAL
Note: The following floating-point exceptions are signalling: IEEE_UNDERFLOW_FLAG IEEE_DENORMAL
Note: The following floating-point exceptions are signalling: IEEE_UNDERFLOW_FLAG IEEE_DENORMAL
Note: The following floating-point exceptions are signalling: IEEE_UNDERFLOW_FLAG IEEE_DENORMAL
Note: The following floating-point exceptions are signalling: IEEE_UNDERFLOW_FLAG IEEE_DENORMAL
Note: The following floating-point exceptions are signalling: IEEE_UNDERFLOW_FLAG IEEE_DENORMAL
Note: The following floating-point exceptions are signalling: IEEE_UNDERFLOW_FLAG IEEE_DENORMAL
Note: The following floating-point exceptions are signalling: IEEE_UNDERFLOW_FLAG IEEE_DENORMAL
Note: The following floating-point exceptions are signalling: IEEE_UNDERFLOW_FLAG IEEE_DENORMAL
Note: The following floating-point exceptions are signalling: IEEE_UNDERFLOW_FLAG IEEE_DENORMAL
Note: The following floating-point exceptions are signalling: IEEE_UNDERFLOW_FLAG IEEE_DENORMAL
Note: The following floating-point exceptions are signalling: IEEE_UNDERFLOW_FLAG IEEE_DENORMAL
Note: The following floating-point exceptions are signalling: IEEE_UNDERFLOW_FLAG IEEE_DENORMAL
Note: The following floating-point exceptions are signalling: IEEE_UNDERFLOW_FLAG IEEE_DENORMAL
Note: The following floating-point exceptions are signalling: IEEE_UNDERFLOW_FLAG IEEE_DENORMAL
Note: The following floating-point exceptions are signalling: IEEE_UNDERFLOW_FLAG IEEE_DENORMAL
Note: The following floating-point exceptions are signalling: IEEE_UNDERFLOW_FLAG IEEE_DENORMAL
Note: The following floating-point exceptions are signalling: IEEE_UNDERFLOW_FLAG IEEE_DENORMAL
Note: The following floating-point exceptions are signalling: IEEE_UNDERFLOW_FLAG IEEE_DENORMAL
Note: The following floating-point exceptions are signalling: IEEE_UNDERFLOW_FLAG IEEE_DENORMAL
Note: The following floating-point exceptions are signalling: IEEE_UNDERFLOW_FLAG IEEE_DENORMAL
Note: The following floating-point exceptions are signalling: IEEE_UNDERFLOW_FLAG IEEE_DENORMAL
Note: The following floating-point exceptions are signalling: IEEE_UNDERFLOW_FLAG IEEE_DENORMAL
Note: The following floating-point exceptions are signalling: IEEE_UNDERFLOW_FLAG IEEE_DENORMAL
Note: The following floating-point exceptions are signalling: IEEE_UNDERFLOW_FLAG IEEE_DENORMAL
Note: The following floating-point exceptions are signalling: IEEE_UNDERFLOW_FLAG IEEE_DENORMAL
Note: The following floating-point exceptions are signalling: IEEE_UNDERFLOW_FLAG IEEE_DENORMAL
Note: The following floating-point exceptions are signalling: IEEE_UNDERFLOW_FLAG IEEE_DENORMAL
Note: The following floating-point exceptions are signalling: IEEE_UNDERFLOW_FLAG IEEE_DENORMAL
Note: The following floating-point exceptions are signalling: IEEE_UNDERFLOW_FLAG IEEE_DENORMAL
Note: The following floating-point exceptions are signalling: IEEE_UNDERFLOW_FLAG IEEE_DENORMAL
Note: The following floating-point exceptions are signalling: IEEE_UNDERFLOW_FLAG IEEE_DENORMAL
Note: The following floating-point exceptions are signalling: IEEE_UNDERFLOW_FLAG IEEE_DENORMAL
Note: The following floating-point exceptions are signalling: IEEE_UNDERFLOW_FLAG IEEE_DENORMAL
Note: The following floating-point exceptions are signalling: IEEE_UNDERFLOW_FLAG IEEE_DENORMAL
Note: The following floating-point exceptions are signalling: IEEE_UNDERFLOW_FLAG IEEE_DENORMAL
Note: The following floating-point exceptions are signalling: IEEE_UNDERFLOW_FLAG IEEE_DENORMAL
Note: The following floating-point exceptions are signalling: IEEE_UNDERFLOW_FLAG IEEE_DENORMAL
Note: The following floating-point exceptions are signalling: IEEE_UNDERFLOW_FLAG IEEE_DENORMAL
Note: The following floating-point exceptions are signalling: IEEE_UNDERFLOW_FLAG IEEE_DENORMAL
Note: The following floating-point exceptions are signalling: IEEE_UNDERFLOW_FLAG IEEE_DENORMAL
Note: The following floating-point exceptions are signalling: IEEE_UNDERFLOW_FLAG IEEE_DENORMAL
Note: The following floating-point exceptions are signalling: IEEE_UNDERFLOW_FLAG IEEE_DENORMAL
Note: The following floating-point exceptions are signalling: IEEE_UNDERFLOW_FLAG IEEE_DENORMAL
Note: The following floating-point exceptions are signalling: IEEE_UNDERFLOW_FLAG IEEE_DENORMAL
Note: The following floating-point exceptions are signalling: IEEE_UNDERFLOW_FLAG IEEE_DENORMAL
Note: The following floating-point exceptions are signalling: IEEE_UNDERFLOW_FLAG IEEE_DENORMAL
Note: The following floating-point exceptions are signalling: IEEE_UNDERFLOW_FLAG IEEE_DENORMAL
Note: The following floating-point exceptions are signalling: IEEE_UNDERFLOW_FLAG IEEE_DENORMAL
Note: The following floating-point exceptions are signalling: IEEE_UNDERFLOW_FLAG IEEE_DENORMAL
Note: The following floating-point exceptions are signalling: IEEE_UNDERFLOW_FLAG IEEE_DENORMAL
Note: The following floating-point exceptions are signalling: IEEE_UNDERFLOW_FLAG IEEE_DENORMAL
Note: The following floating-point exceptions are signalling: IEEE_UNDERFLOW_FLAG IEEE_DENORMAL
Note: The following floating-point exceptions are signalling: IEEE_UNDERFLOW_FLAG IEEE_DENORMAL
Note: The following floating-point exceptions are signalling: IEEE_UNDERFLOW_FLAG IEEE_DENORMAL
Note: The following floating-point exceptions are signalling: IEEE_UNDERFLOW_FLAG IEEE_DENORMAL
Note: The following floating-point exceptions are signalling: IEEE_UNDERFLOW_FLAG IEEE_DENORMAL
Note: The following floating-point exceptions are signalling: IEEE_UNDERFLOW_FLAG IEEE_DENORMAL
Note: The following floating-point exceptions are signalling: IEEE_UNDERFLOW_FLAG IEEE_DENORMAL
Note: The following floating-point exceptions are signalling: IEEE_UNDERFLOW_FLAG IEEE_DENORMAL
Note: The following floating-point exceptions are signalling: IEEE_UNDERFLOW_FLAG IEEE_DENORMAL
Note: The following floating-point exceptions are signalling: IEEE_UNDERFLOW_FLAG IEEE_DENORMAL
Note: The following floating-point exceptions are signalling: IEEE_UNDERFLOW_FLAG IEEE_DENORMAL
Note: The following floating-point exceptions are signalling: IEEE_UNDERFLOW_FLAG IEEE_DENORMAL
Note: The following floating-point exceptions are signalling: IEEE_UNDERFLOW_FLAG IEEE_DENORMAL
Note: The following floating-point exceptions are signalling: IEEE_UNDERFLOW_FLAG IEEE_DENORMAL
Note: The following floating-point exceptions are signalling: IEEE_UNDERFLOW_FLAG IEEE_DENORMAL
Note: The following floating-point exceptions are signalling: IEEE_UNDERFLOW_FLAG IEEE_DENORMAL
Note: The following floating-point exceptions are signalling: IEEE_UNDERFLOW_FLAG IEEE_DENORMAL
Note: The following floating-point exceptions are signalling: IEEE_UNDERFLOW_FLAG IEEE_DENORMAL
Note: The following floating-point exceptions are signalling: IEEE_UNDERFLOW_FLAG IEEE_DENORMAL
Note: The following floating-point exceptions are signalling: IEEE_UNDERFLOW_FLAG IEEE_DENORMAL
Note: The following floating-point exceptions are signalling: IEEE_UNDERFLOW_FLAG IEEE_DENORMAL
Note: The following floating-point exceptions are signalling: IEEE_UNDERFLOW_FLAG IEEE_DENORMAL
Note: The following floating-point exceptions are signalling: IEEE_UNDERFLOW_FLAG IEEE_DENORMAL
Note: The following floating-point exceptions are signalling: IEEE_UNDERFLOW_FLAG IEEE_DENORMAL
Note: The following floating-point exceptions are signalling: IEEE_UNDERFLOW_FLAG IEEE_DENORMAL
Note: The following floating-point exceptions are signalling: IEEE_UNDERFLOW_FLAG IEEE_DENORMAL
Note: The following floating-point exceptions are signalling: IEEE_UNDERFLOW_FLAG IEEE_DENORMAL
Note: The following floating-point exceptions are signalling: IEEE_UNDERFLOW_FLAG IEEE_DENORMAL
Note: The following floating-point exceptions are signalling: IEEE_UNDERFLOW_FLAG IEEE_DENORMAL
Note: The following floating-point exceptions are signalling: IEEE_UNDERFLOW_FLAG IEEE_DENORMAL
Note: The following floating-point exceptions are signalling: IEEE_UNDERFLOW_FLAG IEEE_DENORMAL
Note: The following floating-point exceptions are signalling: IEEE_UNDERFLOW_FLAG IEEE_DENORMAL
Note: The following floating-point exceptions are signalling: IEEE_UNDERFLOW_FLAG IEEE_DENORMAL
Note: The following floating-point exceptions are signalling: IEEE_UNDERFLOW_FLAG IEEE_DENORMAL
Note: The following floating-point exceptions are signalling: IEEE_UNDERFLOW_FLAG IEEE_DENORMAL
Note: The following floating-point exceptions are signalling: IEEE_UNDERFLOW_FLAG IEEE_DENORMAL
Note: The following floating-point exceptions are signalling: IEEE_UNDERFLOW_FLAG IEEE_DENORMAL
Note: The following floating-point exceptions are signalling: IEEE_UNDERFLOW_FLAG IEEE_DENORMAL
Note: The following floating-point exceptions are signalling: IEEE_UNDERFLOW_FLAG IEEE_DENORMAL
Note: The following floating-point exceptions are signalling: IEEE_UNDERFLOW_FLAG IEEE_DENORMAL
Note: The following floating-point exceptions are signalling: IEEE_UNDERFLOW_FLAG IEEE_DENORMAL
Note: The following floating-point exceptions are signalling: IEEE_UNDERFLOW_FLAG IEEE_DENORMAL
Note: The following floating-point exceptions are signalling: IEEE_UNDERFLOW_FLAG IEEE_DENORMAL
Note: The following floating-point exceptions are signalling: IEEE_UNDERFLOW_FLAG IEEE_DENORMAL
Note: The following floating-point exceptions are signalling: IEEE_UNDERFLOW_FLAG IEEE_DENORMAL
Note: The following floating-point exceptions are signalling: IEEE_UNDERFLOW_FLAG IEEE_DENORMAL
Note: The following floating-point exceptions are signalling: IEEE_UNDERFLOW_FLAG IEEE_DENORMAL
Note: The following floating-point exceptions are signalling: IEEE_UNDERFLOW_FLAG IEEE_DENORMAL
Note: The following floating-point exceptions are signalling: IEEE_UNDERFLOW_FLAG IEEE_DENORMAL
Note: The following floating-point exceptions are signalling: IEEE_UNDERFLOW_FLAG IEEE_DENORMAL
Note: The following floating-point exceptions are signalling: IEEE_UNDERFLOW_FLAG IEEE_DENORMAL
Note: The following floating-point exceptions are signalling: IEEE_UNDERFLOW_FLAG IEEE_DENORMAL
Note: The following floating-point exceptions are signalling: IEEE_UNDERFLOW_FLAG IEEE_DENORMAL
Note: The following floating-point exceptions are signalling: IEEE_UNDERFLOW_FLAG IEEE_DENORMAL
Note: The following floating-point exceptions are signalling: IEEE_UNDERFLOW_FLAG IEEE_DENORMAL
Note: The following floating-point exceptions are signalling: IEEE_UNDERFLOW_FLAG IEEE_DENORMAL
Note: The following floating-point exceptions are signalling: IEEE_UNDERFLOW_FLAG IEEE_DENORMAL
Note: The following floating-point exceptions are signalling: IEEE_UNDERFLOW_FLAG IEEE_DENORMAL
Note: The following floating-point exceptions are signalling: IEEE_UNDERFLOW_FLAG IEEE_DENORMAL
Note: The following floating-point exceptions are signalling: IEEE_UNDERFLOW_FLAG IEEE_DENORMAL
Note: The following floating-point exceptions are signalling: IEEE_UNDERFLOW_FLAG IEEE_DENORMAL
Note: The following floating-point exceptions are signalling: IEEE_UNDERFLOW_FLAG IEEE_DENORMAL
Note: The following floating-point exceptions are signalling: IEEE_UNDERFLOW_FLAG IEEE_DENORMAL
Note: The following floating-point exceptions are signalling: IEEE_UNDERFLOW_FLAG IEEE_DENORMAL
Note: The following floating-point exceptions are signalling: IEEE_UNDERFLOW_FLAG IEEE_DENORMAL
Note: The following floating-point exceptions are signalling: IEEE_UNDERFLOW_FLAG IEEE_DENORMAL
Note: The following floating-point exceptions are signalling: IEEE_UNDERFLOW_FLAG IEEE_DENORMAL
Note: The following floating-point exceptions are signalling: IEEE_UNDERFLOW_FLAG IEEE_DENORMAL
Note: The following floating-point exceptions are signalling: IEEE_UNDERFLOW_FLAG IEEE_DENORMAL
Note: The following floating-point exceptions are signalling: IEEE_UNDERFLOW_FLAG IEEE_DENORMAL
Note: The following floating-point exceptions are signalling: IEEE_UNDERFLOW_FLAG IEEE_DENORMAL
Note: The following floating-point exceptions are signalling: IEEE_UNDERFLOW_FLAG IEEE_DENORMAL
Note: The following floating-point exceptions are signalling: IEEE_UNDERFLOW_FLAG IEEE_DENORMAL
Note: The following floating-point exceptions are signalling: IEEE_UNDERFLOW_FLAG IEEE_DENORMAL
Note: The following floating-point exceptions are signalling: IEEE_UNDERFLOW_FLAG IEEE_DENORMAL
Note: The following floating-point exceptions are signalling: IEEE_UNDERFLOW_FLAG IEEE_DENORMAL
Note: The following floating-point exceptions are signalling: IEEE_UNDERFLOW_FLAG IEEE_DENORMAL
Note: The following floating-point exceptions are signalling: IEEE_UNDERFLOW_FLAG IEEE_DENORMAL
Note: The following floating-point exceptions are signalling: IEEE_UNDERFLOW_FLAG IEEE_DENORMAL
Note: The following floating-point exceptions are signalling: IEEE_UNDERFLOW_FLAG IEEE_DENORMAL
Note: The following floating-point exceptions are signalling: IEEE_UNDERFLOW_FLAG IEEE_DENORMAL
Note: The following floating-point exceptions are signalling: IEEE_UNDERFLOW_FLAG IEEE_DENORMAL
Note: The following floating-point exceptions are signalling: IEEE_UNDERFLOW_FLAG IEEE_DENORMAL
Note: The following floating-point exceptions are signalling: IEEE_UNDERFLOW_FLAG IEEE_DENORMAL
Note: The following floating-point exceptions are signalling: IEEE_UNDERFLOW_FLAG IEEE_DENORMAL
Note: The following floating-point exceptions are signalling: IEEE_UNDERFLOW_FLAG IEEE_DENORMAL
Note: The following floating-point exceptions are signalling: IEEE_UNDERFLOW_FLAG IEEE_DENORMAL
Note: The following floating-point exceptions are signalling: IEEE_UNDERFLOW_FLAG IEEE_DENORMAL
Note: The following floating-point exceptions are signalling: IEEE_UNDERFLOW_FLAG IEEE_DENORMAL
Note: The following floating-point exceptions are signalling: IEEE_UNDERFLOW_FLAG IEEE_DENORMAL
Note: The following floating-point exceptions are signalling: IEEE_UNDERFLOW_FLAG IEEE_DENORMAL
Note: The following floating-point exceptions are signalling: IEEE_UNDERFLOW_FLAG IEEE_DENORMAL
Note: The following floating-point exceptions are signalling: IEEE_UNDERFLOW_FLAG IEEE_DENORMAL
Note: The following floating-point exceptions are signalling: IEEE_UNDERFLOW_FLAG IEEE_DENORMAL
Note: The following floating-point exceptions are signalling: IEEE_UNDERFLOW_FLAG IEEE_DENORMAL
Note: The following floating-point exceptions are signalling: IEEE_UNDERFLOW_FLAG IEEE_DENORMAL
Note: The following floating-point exceptions are signalling: IEEE_UNDERFLOW_FLAG IEEE_DENORMAL
Note: The following floating-point exceptions are signalling: IEEE_UNDERFLOW_FLAG IEEE_DENORMAL
Note: The following floating-point exceptions are signalling: IEEE_UNDERFLOW_FLAG IEEE_DENORMAL
Note: The following floating-point exceptions are signalling: IEEE_UNDERFLOW_FLAG IEEE_DENORMAL
Note: The following floating-point exceptions are signalling: IEEE_UNDERFLOW_FLAG IEEE_DENORMAL
Note: The following floating-point exceptions are signalling: IEEE_UNDERFLOW_FLAG IEEE_DENORMAL
Note: The following floating-point exceptions are signalling: IEEE_UNDERFLOW_FLAG IEEE_DENORMAL
Note: The following floating-point exceptions are signalling: IEEE_UNDERFLOW_FLAG IEEE_DENORMAL
Note: The following floating-point exceptions are signalling: IEEE_UNDERFLOW_FLAG IEEE_DENORMAL
Note: The following floating-point exceptions are signalling: IEEE_UNDERFLOW_FLAG IEEE_DENORMAL
Note: The following floating-point exceptions are signalling: IEEE_UNDERFLOW_FLAG IEEE_DENORMAL
Note: The following floating-point exceptions are signalling: IEEE_UNDERFLOW_FLAG IEEE_DENORMAL
Note: The following floating-point exceptions are signalling: IEEE_UNDERFLOW_FLAG IEEE_DENORMAL
Note: The following floating-point exceptions are signalling: IEEE_UNDERFLOW_FLAG IEEE_DENORMAL
Note: The following floating-point exceptions are signalling: IEEE_UNDERFLOW_FLAG IEEE_DENORMAL
Note: The following floating-point exceptions are signalling: IEEE_UNDERFLOW_FLAG IEEE_DENORMAL
Note: The following floating-point exceptions are signalling: IEEE_UNDERFLOW_FLAG IEEE_DENORMAL
Note: The following floating-point exceptions are signalling: IEEE_UNDERFLOW_FLAG IEEE_DENORMAL
Note: The following floating-point exceptions are signalling: IEEE_UNDERFLOW_FLAG IEEE_DENORMAL
