Lmod has detected the following error: The following module(s) are unknown:
"epcc-job-env"

Please check the spelling or version number. Also try "module spider ..."
It is also possible your cache file is out-of-date; it may help to try:
  $ module --ignore-cache load "epcc-job-env"

Also make sure that all modulefiles written in TCL start with the string
#%Module




Warning: You have enabled access to software packages installed
by external parties on ARCHER2 or those that are not fully-supported.
The ARCHER2 CSE service does not test these packages. The service desk
will make reasonable efforts to assist with questions on the use of
these packages but some issues may not be able to be resolved by the
service and they may direct you to seek help from external parties.


         256 PROCESSORS WORKING

         
 *******************************************************************************
 *                                                                             *
 *                               CRYSTAL17                                     *
 *                      public : 1.0.2 - March 1st, 2018 STFC/Archer2 build    *
 *                       HTTP://WWW.CRYSTAL.UNITO.IT                           *
 *                                                                             *
 *                              MAIN AUTHORS                                   *
 *                                                                             *
 *  R. DOVESI(1,11), V.R. SAUNDERS(2), C. ROETTI(1,11), R. ORLANDO(1,11),      *
 *  C.M. ZICOVICH-WILSON(1,3), F. PASCALE(4), B. CIVALLERI(1,11),              *
 *  K. DOLL(5), N.M. HARRISON(2,6), I.J. BUSH(7), Ph. D'ARCO(8),               *
 *  M. LLUNELL(9), M. CAUSA'(10), Y. NOEL(8), L. MASCHIO(1,11), A. ERBA(1,11)  *
 *  M. RE'RAT(14), S. CASASSA(1,11)                                            *
 *                                                                             *
 *        CONTRIBUTIONS TO THE CODE HAVE ALSO BEEN GIVEN BY                    *
 *                                                                             *
 *  M. FERRABONE(1,11), M. DE LA PIERRE(1,11), M. FERRERO(1,11),               *
 *  J. BAIMA(1,11), E. ALBANESE(1,11), M.F. PEINTINGER(12), R. BAST(13),       *
 *  B. KIRTMAN(15), V. LACIVITA(1,11), R. DEMICHELIS(1,16)                     *
 *  G. BRANDEBURG(17), S. SALUSTRO(1,11), G. SANSONE(1,11)                     *
 *  M.T. RUGGIERO(18)                                                          *
 *                                                                             *
 * (1) THEORETICAL CHEMISTRY GROUP - UNIVERSITA' DI TORINO - TORINO (ITALY)    *
 * (2) COMPUTATIONAL SCIENCE & ENGINEERING DEPARTMENT - STFC DARESBURY (UK)    *
 * (3) UNIVERSIDAD AUTONOMA DEL ESTADO DE MORELOS - CUERNAVACA (MEXICO)        *
 * (4) UNIVERSITE' DE LORRAINE - NANCY (FRANCE)                                *
 * (5) UNIVERSITAET STUTTGART- STUTTGART (GERMANY)                             *
 * (6) IMPERIAL COLLEGE - LONDON (UK)                                          *
 * (7) OXFORD E-RESEARCH CENTRE - OXFORD (UK)                                  *
 * (8) UPMC - SORBONNE UNIVERSITES - PARIS (FRANCE)                            *
 * (9) UNIVERSIDAD DE BARCELONA - BARCELONA (SPAIN)                            *
 *(10) UNIVERSITA' DI NAPOLI "FEDERICO II" - NAPOLI (ITALY)                    *
 *(11) NIS - NANOSTRUCTURED INTERFACES AND SURFACES - TORINO (ITALY)           *
 *(12) MPI FUER CHEMISCHE ENERGIEKONVERSION - MUELHEIM AN DER RUHR (GERMANY)   *
 *(13) UNIVERSITY OF TROMSO - TROMSO (NORWAY)                                  *
 *(14) UNIVERSITE' DE PAU ET DES PAYS DE L'ADOUR - PAU (FRANCE)                *
 *(15) UNIVERSITY OF CALIFORNIA SANTA BARBARA - SANTA BARBARA (USA)            *
 *(16) CURTIN UNIVERSITY - PERTH (AUSTRALIA)                                   *
 *(17) UNIVERSITY COLLEGE LONDON - LONDON (UK)                                 *
 *(18) CAMBRIDGE UNIVERSITY - CAMBRIDGE (UK)                                   *
 *                                                                             *
 *******************************************************************************
 EEEEEEEEEE STARTING  DATE 06 03 2022 TIME 00:03:44.1
 F1 vol step8 freq - PBEh-3c                                                     

 GEOMETRY INPUT FROM EXTERNAL FILE (FORTRAN UNIT 34)
 3D - CRYSTAL 

 *******************************************************************************
 LATTICE PARAMETERS  (ANGSTROMS AND DEGREES) - PRIMITIVE CELL
       A          B          C        ALPHA      BETA     GAMMA        VOLUME
    7.26830    9.53438   12.88390    90.00000 117.17137  90.00000    794.308522

 NUMBER OF IRREDUCIBLE ATOMS IN THE CELL:   20

 CARTESIAN COORDINATES (ANGSTROM) - IRREDUCIBLE ATOMS AND SYMMETRY RELATED

 AT.IRR.  AT  AT.N.          X                   Y                   Z
     1     1     8    2.763592334179E+00 -7.520240573410E-01  2.426130821216E+00
     1     2     8    1.605912172317E+00  4.015165066421E+00  3.272243075925E+00
     1     3     8   -2.763592334179E+00  7.520240573410E-01 -2.426130821216E+00
     1     4     8   -1.605912172317E+00 -4.015165066421E+00 -3.272243075925E+00
     5     5     8    7.779240906480E-01  4.837302698755E+00 -2.282359656896E+00
     5     6     8    2.120667187120E+00  7.011357499300E-02 -3.470630249869E+00
     5     7     8   -7.779240906480E-01 -4.837302698755E+00  2.282359656896E+00
     5     8     8   -2.120667187120E+00 -7.011357499300E-02  3.470630249869E+00
     9     9     7    2.962884267701E+00 -4.327025094131E+00 -1.829487103195E+00
     9    10     7   -6.429298993300E-02  4.401640296310E-01 -3.923502803569E+00
     9    11     7   -2.962884267701E+00  4.327025094131E+00  1.829487103195E+00
     9    12     7    6.429298993300E-02 -4.401640296310E-01  3.923502803569E+00
    13    13     6    2.866581639081E+00 -3.445389381584E+00 -7.360684098510E-01
    13    14     6    3.200963868700E-02  1.321799742178E+00 -5.016921496914E+00
    13    15     6   -2.866581639081E+00  3.445389381584E+00  7.360684098510E-01
    13    16     6   -3.200963868700E-02 -1.321799742178E+00  5.016921496914E+00
    17    17     6    1.806704387448E+00 -3.433631922510E+00  1.653202000430E-01
    17    18     6    1.091886890321E+00  1.333557201252E+00 -5.918310106807E+00
    17    19     6   -1.806704387448E+00  3.433631922510E+00 -1.653202000430E-01
    17    20     6   -1.091886890321E+00 -1.333557201252E+00  5.918310106807E+00
    21    21     6    1.792232791049E+00 -2.530436079741E+00  1.218034735328E+00
    21    22     6    2.577271715447E+00  2.236753044021E+00  4.480339161813E+00
    21    23     6   -1.792232791049E+00  2.530436079741E+00 -1.218034735328E+00
    21    24     6   -2.577271715447E+00 -2.236753044021E+00 -4.480339161813E+00
    25    25     6    2.835592461718E+00 -1.627467715531E+00  1.402893846804E+00
    25    26     6    1.533912044778E+00  3.139721408230E+00  4.295480050337E+00
    25    27     6   -2.835592461718E+00  1.627467715531E+00 -1.402893846804E+00
    25    28     6   -1.533912044778E+00 -3.139721408230E+00 -4.295480050337E+00
    29    29     6   -3.359961401262E+00 -1.657823384437E+00  5.697399460290E-01
    29    30     6    4.613701234930E-01  3.109365739324E+00  5.183249960735E+00
    29    31     6    3.359961401262E+00  1.657823384437E+00 -5.697399460290E-01
    29    32     6   -4.613701234930E-01 -3.109365739324E+00 -5.183249960735E+00
    33    33     6   -3.351210038782E+00 -2.553706196193E+00 -4.847484006140E-01
    33    34     6   -1.018294467714E+00  2.213482927569E+00 -5.213625496527E+00
    33    35     6    3.351210038782E+00  2.553706196193E+00  4.847484006140E-01
    33    36     6    1.018294467714E+00 -2.213482927569E+00  5.213625496527E+00
    37    37     6    1.967717050741E+00  4.663471100650E+00 -2.546801933572E+00
    37    38     6    9.308742270270E-01 -1.037180231120E-01 -3.206187973193E+00
    37    39     6   -1.967717050741E+00 -4.663471100650E+00  2.546801933572E+00
    37    40     6   -9.308742270270E-01  1.037180231120E-01  3.206187973193E+00
    41    41     6    2.405925476102E+00  3.801223565461E+00 -3.698325865159E+00
    41    42     6    4.926658016660E-01 -9.659655583000E-01 -2.054664041605E+00
    41    43     6   -2.405925476102E+00 -3.801223565461E+00  3.698325865159E+00
    41    44     6   -4.926658016660E-01  9.659655583000E-01  2.054664041605E+00
    45    45     1    9.859830799130E-01 -4.125500908501E+00  6.909868319300E-02
    45    46     1    1.912608197856E+00  6.416882152610E-01 -5.822088589958E+00
    45    47     1   -9.859830799130E-01  4.125500908501E+00 -6.909868319300E-02
    45    48     1   -1.912608197856E+00 -6.416882152610E-01  5.822088589958E+00
    49    49     1    9.565214893680E-01 -2.541090102135E+00  1.906822118553E+00
    49    50     1    3.412983017128E+00  2.226099021626E+00  3.791551778588E+00
    49    51     1   -9.565214893680E-01  2.541090102135E+00 -1.906822118553E+00
    49    52     1   -3.412983017128E+00 -2.226099021626E+00 -3.791551778588E+00
    53    53     1   -2.533892510759E+00 -9.680371895010E-01  6.837098407360E-01
    53    54     1   -3.646987670090E-01  3.799151934261E+00  5.069280066029E+00
    53    55     1    2.533892510759E+00  9.680371895010E-01 -6.837098407360E-01
    53    56     1    3.646987670090E-01 -3.799151934261E+00 -5.069280066029E+00
    57    57     1   -2.507474913464E+00 -2.558434219358E+00 -1.163852289847E+00
    57    58     1   -1.862029593032E+00  2.208754904404E+00 -4.534521607294E+00
    57    59     1    2.507474913464E+00  2.558434219358E+00  1.163852289847E+00
    57    60     1    1.862029593032E+00 -2.208754904404E+00  4.534521607294E+00
    61    61     1   -3.625049241983E+00 -3.815916709040E-01  2.713858112062E+00
    61    62     1    7.264579642140E-01  4.385597452858E+00  3.039131794702E+00
    61    63     1    3.625049241983E+00  3.815916709040E-01 -2.713858112062E+00
    61    64     1   -7.264579642140E-01 -4.385597452858E+00 -3.039131794702E+00
    65    65     1   -3.365243739550E+00 -4.483935386617E+00 -2.116262392833E+00
    65    66     1   -1.004260766946E+00  2.832537371450E-01 -3.582111504307E+00
    65    67     1    3.365243739550E+00  4.483935386617E+00  2.116262392833E+00
    65    68     1    1.004260766946E+00 -2.832537371450E-01  3.582111504307E+00
    69    69     1    1.759214871055E+00  3.962206209979E+00 -4.559538292617E+00
    69    70     1    1.139376406714E+00 -8.049829137830E-01 -1.193451614147E+00
    69    71     1   -1.759214871055E+00 -3.962206209979E+00  4.559538292617E+00
    69    72     1   -1.139376406714E+00  8.049829137830E-01  1.193451614147E+00
    73    73     1    3.440447427212E+00  3.970647595873E+00 -3.991702879759E+00
    73    74     1   -5.418561494440E-01 -7.965415278890E-01 -1.761287027006E+00
    73    75     1   -3.440447427212E+00 -3.970647595873E+00  3.991702879759E+00
    73    76     1    5.418561494440E-01  7.965415278890E-01  1.761287027006E+00
    77    77     1    2.302090146855E+00  2.750301019077E+00 -3.428752907584E+00
    77    78     1    5.965011309130E-01 -2.016888104685E+00 -2.324236999180E+00
    77    79     1   -2.302090146855E+00 -2.750301019077E+00  3.428752907584E+00
    77    80     1   -5.965011309130E-01  2.016888104685E+00  2.324236999180E+00

 SPACE  GROUP  N.                     :   14
 NUMBER OF SYMMETRY OPERATORS         :    4
 *******************************************************************************
 LATTICE PARAMETERS (ANGSTROMS AND DEGREES) - BOHR = 0.5291772083 ANGSTROM
 PRIMITIVE CELL - CENTRING CODE 1/0 VOLUME=   794.308522 - DENSITY  1.263 g/cm^3
         A              B              C           ALPHA      BETA       GAMMA 
     7.26830099     9.53437825    12.88390069    90.000000 117.171372  90.000000
 *******************************************************************************
 ATOMS IN THE ASYMMETRIC UNIT   20 - ATOMS IN THE UNIT CELL:   80
     ATOM                 X/A                 Y/B                 Z/C    
 *******************************************************************************
      1 T   8 O    -4.494947606147E-01 -7.887499717526E-02  2.134713653666E-01
      2 F   8 O     4.494947606165E-01  4.211250028249E-01  2.865286346347E-01
      3 F   8 O     4.494947606147E-01  7.887499717526E-02 -2.134713653666E-01
      4 F   8 O    -4.494947606165E-01 -4.211250028249E-01 -2.865286346347E-01
      5 T   8 O    -5.138014118151E-02 -4.926462352159E-01 -1.986068003092E-01
      6 F   8 O     5.138014118019E-02  7.353764783901E-03 -3.013931996921E-01
      7 F   8 O     5.138014118151E-02  4.926462352159E-01  1.986068003092E-01
      8 F   8 O    -5.138014118019E-02 -7.353764783901E-03  3.013931996921E-01
      9 T   7 N     2.818993101408E-01 -4.538340080284E-01 -1.576650504489E-01
     10 F   7 N    -2.818993101421E-01  4.616599197179E-02 -3.423349495523E-01
     11 F   7 N    -2.818993101408E-01  4.538340080284E-01  1.576650504489E-01
     12 F   7 N     2.818993101421E-01 -4.616599197179E-02  3.423349495523E-01
     13 T   6 C     3.446852321800E-01 -3.613648726890E-01 -6.233654930036E-02
     14 F   6 C    -3.446852321814E-01  1.386351273112E-01 -4.376634507010E-01
     15 F   6 C    -3.446852321800E-01  3.613648726890E-01  6.233654930036E-02
     16 F   6 C     3.446852321814E-01 -1.386351273112E-01  4.376634507010E-01
     17 T   6 C     2.610288093197E-01 -3.601317079489E-01  1.560723683820E-02
     18 F   6 C    -2.610288093208E-01  1.398682920513E-01  4.843927631606E-01
     19 F   6 C    -2.610288093197E-01  3.601317079489E-01 -1.560723683820E-02
     20 F   6 C     2.610288093208E-01 -1.398682920513E-01 -4.843927631606E-01
     21 T   6 C     3.322840296511E-01 -2.654012683417E-01  1.074382871452E-01
     22 F   6 C    -3.322840296492E-01  2.345987316585E-01  3.925617128561E-01
     23 F   6 C    -3.322840296511E-01  2.654012683417E-01 -1.074382871452E-01
     24 F   6 C     3.322840296492E-01 -2.345987316585E-01 -3.925617128561E-01
     25 T   6 C     4.892465317834E-01 -1.706946875067E-01  1.242497000051E-01
     26 F   6 C    -4.892465317815E-01  3.293053124934E-01  3.757502999962E-01
     27 F   6 C    -4.892465317834E-01  1.706946875067E-01 -1.242497000051E-01
     28 F   6 C     4.892465317815E-01 -3.293053124934E-01 -3.757502999962E-01
     29 T   6 C    -4.244002542100E-01 -1.738784996146E-01  4.750233413582E-02
     30 F   6 C     4.244002542111E-01  3.261215003855E-01  4.524976658654E-01
     31 F   6 C     4.244002542100E-01  1.738784996146E-01 -4.750233413582E-02
     32 F   6 C    -4.244002542111E-01 -3.261215003855E-01 -4.524976658654E-01
     33 T   6 C    -4.965689309698E-01 -2.678419221366E-01 -4.448721642341E-02
     34 F   6 C     4.965689309680E-01  2.321580778636E-01 -4.555127835779E-01
     35 F   6 C     4.965689309698E-01  2.678419221366E-01  4.448721642341E-02
     36 F   6 C    -4.965689309680E-01 -2.321580778636E-01  4.555127835779E-01
     37 T   6 C     9.454137773944E-02  4.891216794197E-01 -2.208971771177E-01
     38 F   6 C    -9.454137774076E-02 -1.087832058047E-02 -2.791028228836E-01
     39 F   6 C    -9.454137773944E-02 -4.891216794197E-01  2.208971771177E-01
     40 F   6 C     9.454137774076E-02  1.087832058047E-02  2.791028228836E-01
     41 T   6 C     7.493294846995E-02  3.986860460932E-01 -3.210707289952E-01
     42 F   6 C    -7.493294847120E-02 -1.013139539069E-01 -1.789292710060E-01
     43 F   6 C    -7.493294846995E-02 -3.986860460932E-01  3.210707289952E-01
     44 F   6 C     7.493294847120E-02  1.013139539069E-01  1.789292710060E-01
     45 T   1 H     1.409829184213E-01 -4.326974241424E-01  6.674669073566E-03
     46 F   1 H    -1.409829184224E-01  6.730257585783E-02  4.933253309251E-01
     47 F   1 H    -1.409829184213E-01  4.326974241424E-01 -6.674669073566E-03
     48 F   1 H     1.409829184224E-01 -6.730257585783E-02 -4.933253309251E-01
     49 T   1 H     2.647932732333E-01 -2.665187006605E-01  1.669813524493E-01
     50 F   1 H    -2.647932732315E-01  2.334812993396E-01  3.330186475520E-01
     51 F   1 H    -2.647932732333E-01  2.665187006605E-01 -1.669813524493E-01
     52 F   1 H     2.647932732315E-01 -2.334812993396E-01 -3.330186475520E-01
     53 T   1 H    -3.023807721711E-01 -1.015312340637E-01  5.798680515590E-02
     54 F   1 H     3.023807721724E-01  3.984687659365E-01  4.420131948454E-01
     55 F   1 H     3.023807721711E-01  1.015312340637E-01 -5.798680515590E-02
     56 F   1 H    -3.023807721724E-01 -3.984687659365E-01 -4.420131948454E-01
     57 T   1 H    -4.272961671781E-01 -2.683378142695E-01 -1.031802176493E-01
     58 F   1 H     4.272961671762E-01  2.316621857307E-01 -3.968197823519E-01
     59 F   1 H     4.272961671781E-01  2.683378142695E-01  1.031802176493E-01
     60 F   1 H    -4.272961671762E-01 -2.316621857307E-01  3.968197823519E-01
     61 T   1 H    -3.118116652633E-01 -4.002271160191E-02  2.343849239147E-01
     62 F   1 H     3.118116652644E-01  4.599772883983E-01  2.656150760865E-01
     63 F   1 H     3.118116652633E-01  4.002271160191E-02 -2.343849239147E-01
     64 F   1 H    -3.118116652644E-01 -4.599772883983E-01 -2.656150760865E-01
     65 T   1 H     3.879627896781E-01 -4.702913257908E-01 -1.868323652436E-01
     66 F   1 H    -3.879627896799E-01  2.970867420943E-02 -3.131676347575E-01
     67 F   1 H    -3.879627896781E-01  4.702913257908E-01  1.868323652436E-01
     68 F   1 H     3.879627896799E-01 -2.970867420943E-02  3.131676347575E-01
     69 T   1 H    -7.431267782066E-02  4.155704868337E-01 -3.966282775144E-01
     70 F   1 H     7.431267781954E-02 -8.442951316646E-02 -1.033717224868E-01
     71 F   1 H     7.431267782066E-02 -4.155704868337E-01  3.966282775144E-01
     72 F   1 H    -7.431267781954E-02  8.442951316646E-02  1.033717224868E-01
     73 T   1 H     1.973964628628E-01  4.164558498511E-01 -3.459872116213E-01
     74 F   1 H    -1.973964628641E-01 -8.354415014909E-02 -1.540127883800E-01
     75 F   1 H    -1.973964628628E-01 -4.164558498511E-01  3.459872116213E-01
     76 F   1 H     1.973964628641E-01  8.354415014909E-02  1.540127883800E-01
     77 T   1 H     7.935062570542E-02  2.884614966678E-01 -2.976208153111E-01
     78 F   1 H    -7.935062570667E-02 -2.115385033324E-01 -2.023791846901E-01
     79 F   1 H    -7.935062570542E-02 -2.884614966678E-01  2.976208153111E-01
     80 F   1 H     7.935062570667E-02  2.115385033324E-01  2.023791846901E-01

 T = ATOM BELONGING TO THE ASYMMETRIC UNIT
 *******************************************************************************
 * GEOMETRY EDITING - INPUT COORDINATES ARE GIVEN IN ANGSTROM         
 *******************************************************************************

 GEOMETRY NOW FULLY CONSISTENT WITH THE GROUP

 FRQFRQFRQFRQFRQFRQFRQFRQFRQFRQFRQFRQFRQFRQFRQFRQFRQFRQFRQFRQFRQFRQFRQFRQFRQFRQ

                       FREQUENCY CALCULATION

 INFORMATION **** INPFREQ ****  PRINTING OF EIGENVECTORS
 INFORMATION **** INPFREQ **** NEW DEFAULT - IMPOSING ECKART CONDITIONS TO THE HESSIAN

 GCALCO - MAX INDICES DIRECT LATTICE VECTOR    20    14    11
 NO.OF VECTORS CREATED 6999 STARS 1869 RMAX   207.93429 BOHR

 GEOMETRY FOR WAVE FUNCTION - DIMENSIONALITY OF THE SYSTEM    3
 (NON PERIODIC DIRECTION: LATTICE PARAMETER FORMALLY SET TO 500)
 *******************************************************************************
 LATTICE PARAMETERS (ANGSTROMS AND DEGREES) - BOHR = 0.5291772083 ANGSTROM
 PRIMITIVE CELL - CENTRING CODE 1/0 VOLUME=   794.308522 - DENSITY  1.263 g/cm^3
         A              B              C           ALPHA      BETA       GAMMA 
     7.26830099     9.53437825    12.88390069    90.000000 117.171372  90.000000
 *******************************************************************************
 ATOMS IN THE ASYMMETRIC UNIT   20 - ATOMS IN THE UNIT CELL:   80
     ATOM                 X/A                 Y/B                 Z/C    
 *******************************************************************************
      1 T   8 O    -4.494947606147E-01 -7.887499717526E-02  2.134713653666E-01
      2 F   8 O     4.494947606154E-01  4.211250028247E-01  2.865286346343E-01
      3 F   8 O     4.494947606147E-01  7.887499717526E-02 -2.134713653666E-01
      4 F   8 O    -4.494947606140E-01 -4.211250028247E-01 -2.865286346326E-01
      5 T   8 O    -5.138014118151E-02 -4.926462352159E-01 -1.986068003092E-01
      6 F   8 O     5.138014118220E-02  7.353764784110E-03 -3.013931996899E-01
      7 F   8 O     5.138014118151E-02  4.926462352159E-01  1.986068003092E-01
      8 F   8 O    -5.138014118081E-02 -7.353764784110E-03  3.013931996917E-01
      9 T   7 N     2.818993101408E-01 -4.538340080284E-01 -1.576650504489E-01
     10 F   7 N    -2.818993101401E-01  4.616599197158E-02 -3.423349495502E-01
     11 F   7 N    -2.818993101408E-01  4.538340080284E-01  1.576650504489E-01
     12 F   7 N     2.818993101415E-01 -4.616599197158E-02  3.423349495520E-01
     13 T   6 C     3.446852321800E-01 -3.613648726890E-01 -6.233654930036E-02
     14 F   6 C    -3.446852321793E-01  1.386351273110E-01 -4.376634506988E-01
     15 F   6 C    -3.446852321800E-01  3.613648726890E-01  6.233654930036E-02
     16 F   6 C     3.446852321807E-01 -1.386351273110E-01  4.376634507005E-01
     17 T   6 C     2.610288093197E-01 -3.601317079489E-01  1.560723683820E-02
     18 F   6 C    -2.610288093190E-01  1.398682920511E-01  4.843927631627E-01
     19 F   6 C    -2.610288093197E-01  3.601317079489E-01 -1.560723683820E-02
     20 F   6 C     2.610288093203E-01 -1.398682920511E-01 -4.843927631609E-01
     21 T   6 C     3.322840296511E-01 -2.654012683417E-01  1.074382871452E-01
     22 F   6 C    -3.322840296504E-01  2.345987316583E-01  3.925617128557E-01
     23 F   6 C    -3.322840296511E-01  2.654012683417E-01 -1.074382871452E-01
     24 F   6 C     3.322840296518E-01 -2.345987316583E-01 -3.925617128540E-01
     25 T   6 C     4.892465317834E-01 -1.706946875067E-01  1.242497000051E-01
     26 F   6 C    -4.892465317827E-01  3.293053124933E-01  3.757502999958E-01
     27 F   6 C    -4.892465317834E-01  1.706946875067E-01 -1.242497000051E-01
     28 F   6 C     4.892465317841E-01 -3.293053124933E-01 -3.757502999940E-01
     29 T   6 C    -4.244002542100E-01 -1.738784996146E-01  4.750233413582E-02
     30 F   6 C     4.244002542107E-01  3.261215003854E-01  4.524976658651E-01
     31 F   6 C     4.244002542100E-01  1.738784996146E-01 -4.750233413582E-02
     32 F   6 C    -4.244002542093E-01 -3.261215003854E-01 -4.524976658633E-01
     33 T   6 C    -4.965689309698E-01 -2.678419221366E-01 -4.448721642341E-02
     34 F   6 C     4.965689309705E-01  2.321580778634E-01 -4.555127835757E-01
     35 F   6 C     4.965689309698E-01  2.678419221366E-01  4.448721642341E-02
     36 F   6 C    -4.965689309691E-01 -2.321580778634E-01  4.555127835775E-01
     37 T   6 C     9.454137773944E-02  4.891216794197E-01 -2.208971771177E-01
     38 F   6 C    -9.454137773874E-02 -1.087832058026E-02 -2.791028228814E-01
     39 F   6 C    -9.454137773944E-02 -4.891216794197E-01  2.208971771177E-01
     40 F   6 C     9.454137774014E-02  1.087832058026E-02  2.791028228832E-01
     41 T   6 C     7.493294846995E-02  3.986860460932E-01 -3.210707289952E-01
     42 F   6 C    -7.493294846926E-02 -1.013139539068E-01 -1.789292710039E-01
     43 F   6 C    -7.493294846995E-02 -3.986860460932E-01  3.210707289952E-01
     44 F   6 C     7.493294847065E-02  1.013139539068E-01  1.789292710057E-01
     45 T   1 H     1.409829184213E-01 -4.326974241424E-01  6.674669073566E-03
     46 F   1 H    -1.409829184206E-01  6.730257585762E-02  4.933253309273E-01
     47 F   1 H    -1.409829184213E-01  4.326974241424E-01 -6.674669073566E-03
     48 F   1 H     1.409829184220E-01 -6.730257585762E-02 -4.933253309256E-01
     49 T   1 H     2.647932732333E-01 -2.665187006605E-01  1.669813524493E-01
     50 F   1 H    -2.647932732326E-01  2.334812993395E-01  3.330186475516E-01
     51 F   1 H    -2.647932732333E-01  2.665187006605E-01 -1.669813524493E-01
     52 F   1 H     2.647932732340E-01 -2.334812993395E-01 -3.330186475499E-01
     53 T   1 H    -3.023807721711E-01 -1.015312340637E-01  5.798680515590E-02
     54 F   1 H     3.023807721717E-01  3.984687659363E-01  4.420131948450E-01
     55 F   1 H     3.023807721711E-01  1.015312340637E-01 -5.798680515590E-02
     56 F   1 H    -3.023807721704E-01 -3.984687659363E-01 -4.420131948432E-01
     57 T   1 H    -4.272961671781E-01 -2.683378142695E-01 -1.031802176493E-01
     58 F   1 H     4.272961671788E-01  2.316621857305E-01 -3.968197823498E-01
     59 F   1 H     4.272961671781E-01  2.683378142695E-01  1.031802176493E-01
     60 F   1 H    -4.272961671774E-01 -2.316621857305E-01  3.968197823515E-01
     61 T   1 H    -3.118116652633E-01 -4.002271160191E-02  2.343849239147E-01
     62 F   1 H     3.118116652640E-01  4.599772883981E-01  2.656150760862E-01
     63 F   1 H     3.118116652633E-01  4.002271160191E-02 -2.343849239147E-01
     64 F   1 H    -3.118116652626E-01 -4.599772883981E-01 -2.656150760844E-01
     65 T   1 H     3.879627896781E-01 -4.702913257908E-01 -1.868323652436E-01
     66 F   1 H    -3.879627896774E-01  2.970867420922E-02 -3.131676347555E-01
     67 F   1 H    -3.879627896781E-01  4.702913257908E-01  1.868323652436E-01
     68 F   1 H     3.879627896788E-01 -2.970867420922E-02  3.131676347572E-01
     69 T   1 H    -7.431267782066E-02  4.155704868337E-01 -3.966282775144E-01
     70 F   1 H     7.431267782135E-02 -8.442951316625E-02 -1.033717224847E-01
     71 F   1 H     7.431267782066E-02 -4.155704868337E-01  3.966282775144E-01
     72 F   1 H    -7.431267781996E-02  8.442951316625E-02  1.033717224865E-01
     73 T   1 H     1.973964628628E-01  4.164558498511E-01 -3.459872116213E-01
     74 F   1 H    -1.973964628621E-01 -8.354415014888E-02 -1.540127883778E-01
     75 F   1 H    -1.973964628628E-01 -4.164558498511E-01  3.459872116213E-01
     76 F   1 H     1.973964628635E-01  8.354415014888E-02  1.540127883796E-01
     77 T   1 H     7.935062570542E-02  2.884614966678E-01 -2.976208153111E-01
     78 F   1 H    -7.935062570472E-02 -2.115385033322E-01 -2.023791846880E-01
     79 F   1 H    -7.935062570542E-02 -2.884614966678E-01  2.976208153111E-01
     80 F   1 H     7.935062570611E-02  2.115385033322E-01  2.023791846898E-01

 T = ATOM BELONGING TO THE ASYMMETRIC UNIT

 ****    4 SYMMOPS - TRANSLATORS IN FRACTIONAL UNITS
 **** MATRICES AND TRANSLATORS IN THE CRYSTALLOGRAPHIC REFERENCE FRAME
   V INV                    ROTATION MATRICES                   TRANSLATORS
   1   1  1.00  0.00  0.00  0.00  1.00  0.00  0.00  0.00  1.00  0.00  0.00  0.00
   2   2 -1.00  0.00  0.00  0.00  1.00  0.00 -0.00  0.00 -1.00  0.00  0.50  0.50
   3   3 -1.00 -0.00  0.00  0.00 -1.00 -0.00 -0.00  0.00 -1.00  0.00  0.00  0.00
   4   4  1.00 -0.00 -0.00 -0.00 -1.00 -0.00  0.00 -0.00  1.00  0.00  0.50  0.50

 DIRECT LATTICE VECTORS CARTESIAN COMPONENTS (ANGSTROM)
          X                    Y                    Z
   0.726809578426E+01   0.447544807581E-15  -0.546160096235E-01
  -0.423868897695E-17   0.953437824752E+01  -0.434849710920E-17
  -0.579718255554E+01   0.794683312235E-15   0.115059798135E+02


 CARTESIAN COORDINATES - PRIMITIVE CELL
 *******************************************************************************
 *      ATOM          X(ANGSTROM)         Y(ANGSTROM)         Z(ANGSTROM)
 *******************************************************************************
    1     8 O     2.763592334179E+00 -7.520240573410E-01  2.426130821216E+00
    2     8 O     1.605912172311E+00  4.015165066419E+00  3.272243075920E+00
    3     8 O    -2.763592334179E+00  7.520240573410E-01 -2.426130821216E+00
    4     8 O    -1.605912172311E+00 -4.015165066419E+00 -3.272243075900E+00
    5     8 O     7.779240906480E-01  4.837302698755E+00 -2.282359656896E+00
    6     8 O     2.120667187122E+00  7.011357499500E-02 -3.470630249844E+00
    7     8 O    -7.779240906480E-01 -4.837302698755E+00  2.282359656896E+00
    8     8 O    -2.120667187122E+00 -7.011357499500E-02  3.470630249864E+00
    9     7 N     2.962884267701E+00 -4.327025094131E+00 -1.829487103195E+00
   10     7 N    -6.429298993100E-02  4.401640296290E-01 -3.923502803545E+00
   11     7 N    -2.962884267701E+00  4.327025094131E+00  1.829487103195E+00
   12     7 N     6.429298993100E-02 -4.401640296290E-01  3.923502803565E+00
   13     6 C     2.866581639081E+00 -3.445389381584E+00 -7.360684098510E-01
   14     6 C     3.200963868900E-02  1.321799742176E+00 -5.016921496889E+00
   15     6 C    -2.866581639081E+00  3.445389381584E+00  7.360684098510E-01
   16     6 C    -3.200963868900E-02 -1.321799742176E+00  5.016921496909E+00
   17     6 C     1.806704387448E+00 -3.433631922510E+00  1.653202000430E-01
   18     6 C     1.091886890322E+00  1.333557201250E+00 -5.918310106783E+00
   19     6 C    -1.806704387448E+00  3.433631922510E+00 -1.653202000430E-01
   20     6 C    -1.091886890322E+00 -1.333557201250E+00  5.918310106803E+00
   21     6 C     1.792232791049E+00 -2.530436079741E+00  1.218034735328E+00
   22     6 C     2.577271715441E+00  2.236753044019E+00  4.480339161808E+00
   23     6 C    -1.792232791049E+00  2.530436079741E+00 -1.218034735328E+00
   24     6 C    -2.577271715441E+00 -2.236753044019E+00 -4.480339161789E+00
   25     6 C     2.835592461718E+00 -1.627467715531E+00  1.402893846804E+00
   26     6 C     1.533912044772E+00  3.139721408229E+00  4.295480050332E+00
   27     6 C    -2.835592461718E+00  1.627467715531E+00 -1.402893846804E+00
   28     6 C    -1.533912044772E+00 -3.139721408229E+00 -4.295480050313E+00
   29     6 C    -3.359961401262E+00 -1.657823384437E+00  5.697399460290E-01
   30     6 C     4.613701234920E-01  3.109365739323E+00  5.183249960731E+00
   31     6 C     3.359961401262E+00  1.657823384437E+00 -5.697399460290E-01
   32     6 C    -4.613701234920E-01 -3.109365739323E+00 -5.183249960711E+00
   33     6 C    -3.351210038782E+00 -2.553706196193E+00 -4.847484006140E-01
   34     6 C    -1.018294467708E+00  2.213482927567E+00 -5.213625496502E+00
   35     6 C     3.351210038782E+00  2.553706196193E+00  4.847484006140E-01
   36     6 C     1.018294467708E+00 -2.213482927567E+00  5.213625496522E+00
   37     6 C     1.967717050741E+00  4.663471100650E+00 -2.546801933572E+00
   38     6 C     9.308742270290E-01 -1.037180231100E-01 -3.206187973168E+00
   39     6 C    -1.967717050741E+00 -4.663471100650E+00  2.546801933572E+00
   40     6 C    -9.308742270290E-01  1.037180231100E-01  3.206187973188E+00
   41     6 C     2.405925476102E+00  3.801223565461E+00 -3.698325865159E+00
   42     6 C     4.926658016680E-01 -9.659655582990E-01 -2.054664041581E+00
   43     6 C    -2.405925476102E+00 -3.801223565461E+00  3.698325865159E+00
   44     6 C    -4.926658016680E-01  9.659655582990E-01  2.054664041601E+00
   45     1 H     9.859830799130E-01 -4.125500908501E+00  6.909868319300E-02
   46     1 H     1.912608197857E+00  6.416882152590E-01 -5.822088589933E+00
   47     1 H    -9.859830799130E-01  4.125500908501E+00 -6.909868319300E-02
   48     1 H    -1.912608197857E+00 -6.416882152590E-01  5.822088589953E+00
   49     1 H     9.565214893680E-01 -2.541090102135E+00  1.906822118553E+00
   50     1 H     3.412983017122E+00  2.226099021625E+00  3.791551778583E+00
   51     1 H    -9.565214893680E-01  2.541090102135E+00 -1.906822118553E+00
   52     1 H    -3.412983017122E+00 -2.226099021625E+00 -3.791551778564E+00
   53     1 H    -2.533892510759E+00 -9.680371895010E-01  6.837098407360E-01
   54     1 H    -3.646987670110E-01  3.799151934259E+00  5.069280066024E+00
   55     1 H     2.533892510759E+00  9.680371895010E-01 -6.837098407360E-01
   56     1 H     3.646987670110E-01 -3.799151934259E+00 -5.069280066004E+00
   57     1 H    -2.507474913464E+00 -2.558434219358E+00 -1.163852289847E+00
   58     1 H    -1.862029593026E+00  2.208754904402E+00 -4.534521607270E+00
   59     1 H     2.507474913464E+00  2.558434219358E+00  1.163852289847E+00
   60     1 H     1.862029593026E+00 -2.208754904402E+00  4.534521607289E+00
   61     1 H    -3.625049241983E+00 -3.815916709040E-01  2.713858112062E+00
   62     1 H     7.264579642130E-01  4.385597452856E+00  3.039131794698E+00
   63     1 H     3.625049241983E+00  3.815916709040E-01 -2.713858112062E+00
   64     1 H    -7.264579642130E-01 -4.385597452856E+00 -3.039131794678E+00
   65     1 H    -3.365243739550E+00 -4.483935386617E+00 -2.116262392833E+00
   66     1 H    -1.004260766940E+00  2.832537371430E-01 -3.582111504283E+00
   67     1 H     3.365243739550E+00  4.483935386617E+00  2.116262392833E+00
   68     1 H     1.004260766940E+00 -2.832537371430E-01  3.582111504303E+00
   69     1 H     1.759214871055E+00  3.962206209979E+00 -4.559538292617E+00
   70     1 H     1.139376406715E+00 -8.049829137810E-01 -1.193451614123E+00
   71     1 H    -1.759214871055E+00 -3.962206209979E+00  4.559538292617E+00
   72     1 H    -1.139376406715E+00  8.049829137810E-01  1.193451614143E+00
   73     1 H     3.440447427212E+00  3.970647595873E+00 -3.991702879759E+00
   74     1 H    -5.418561494420E-01 -7.965415278870E-01 -1.761287026981E+00
   75     1 H    -3.440447427212E+00 -3.970647595873E+00  3.991702879759E+00
   76     1 H     5.418561494420E-01  7.965415278870E-01  1.761287027001E+00
   77     1 H     2.302090146855E+00  2.750301019077E+00 -3.428752907584E+00
   78     1 H     5.965011309150E-01 -2.016888104683E+00 -2.324236999156E+00
   79     1 H    -2.302090146855E+00 -2.750301019077E+00  3.428752907584E+00
   80     1 H    -5.965011309150E-01  2.016888104683E+00  2.324236999176E+00

 *******************************************************************************
 STARTING BASIS SET HANDLING 
 *******************************************************************************

 Loading internal basis set: DEF2-MSVP           

 Please cite in your publication:
 Fully Optimized Contracted Gaussian Basis Sets for Atoms Li to Kr. A. Schaefer, H. Horn and R. Ahlrichs; J. Chem. Phys. 97, 2571 (1992).                                                                                                                         
 S. Grimme, J. G. Brandenburg, C. Bannwarth, and A. Hansen, J. Chem. Phys., 143, 054107 (2015).                                                                                                                                                                  

 *******************************************************************************
 LOCAL ATOMIC FUNCTIONS BASIS SET
 *******************************************************************************
   ATOM   X(AU)   Y(AU)   Z(AU)  N. TYPE  EXPONENT  S COEF   P COEF   D/F/G COEF
 *******************************************************************************
   1 O    5.222  -1.421   4.585
                                  1 S  
                                         6.773E+03 1.727E-03 0.000E+00 0.000E+00
                                         1.017E+03 1.325E-02 0.000E+00 0.000E+00
                                         2.313E+02 6.603E-02 0.000E+00 0.000E+00
                                         6.501E+01 2.353E-01 0.000E+00 0.000E+00
                                         2.050E+01 5.498E-01 0.000E+00 0.000E+00
                                  2 S  
                                         6.716E+00 1.000E+00 0.000E+00 0.000E+00
                                  3 S  
                                         1.147E+00 1.000E+00 0.000E+00 0.000E+00
                                  4 S  
                                         3.342E-01 1.000E+00 0.000E+00 0.000E+00
                           5-     7 P  
                                         1.769E+01 0.000E+00 4.359E-02 0.000E+00
                                         3.854E+00 0.000E+00 2.318E-01 0.000E+00
                                         1.047E+00 0.000E+00 5.146E-01 0.000E+00
                           8-    10 P  
                                         2.759E-01 0.000E+00 1.000E+00 0.000E+00
                          11-    15 D  
                                         8.000E-01 0.000E+00 0.000E+00 1.000E+00
   2 O    3.035   7.588   6.184
   3 O   -5.222   1.421  -4.585
   4 O   -3.035  -7.588  -6.184
   5 O    1.470   9.141  -4.313
   6 O    4.007   0.132  -6.559
   7 O   -1.470  -9.141   4.313
   8 O   -4.007  -0.132   6.559
   9 N    5.599  -8.177  -3.457
                                121 S  
                                         5.072E+03 1.707E-03 0.000E+00 0.000E+00
                                         7.614E+02 1.309E-02 0.000E+00 0.000E+00
                                         1.732E+02 6.510E-02 0.000E+00 0.000E+00
                                         4.867E+01 2.305E-01 0.000E+00 0.000E+00
                                         1.533E+01 5.330E-01 0.000E+00 0.000E+00
                                122 S  
                                         5.019E+00 1.000E+00 0.000E+00 0.000E+00
                                123 S  
                                         8.355E-01 1.000E+00 0.000E+00 0.000E+00
                                124 S  
                                         2.463E-01 1.000E+00 0.000E+00 0.000E+00
                         125-   127 P  
                                         1.355E+01 0.000E+00 4.063E-02 0.000E+00
                                         2.918E+00 0.000E+00 2.209E-01 0.000E+00
                                         7.983E-01 0.000E+00 5.186E-01 0.000E+00
                         128-   130 P  
                                         2.190E-01 0.000E+00 1.000E+00 0.000E+00
                         131-   135 D  
                                         8.000E-01 0.000E+00 0.000E+00 1.000E+00
  10 N   -0.121   0.832  -7.414
  11 N   -5.599   8.177   3.457
  12 N    0.121  -0.832   7.414
  13 C    5.417  -6.511  -1.391
                                181 S  
                                         3.624E+03 1.634E-03 0.000E+00 0.000E+00
                                         5.440E+02 1.252E-02 0.000E+00 0.000E+00
                                         1.237E+02 6.211E-02 0.000E+00 0.000E+00
                                         3.476E+01 2.182E-01 0.000E+00 0.000E+00
                                         1.093E+01 4.980E-01 0.000E+00 0.000E+00
                                182 S  
                                         3.574E+00 1.000E+00 0.000E+00 0.000E+00
                                183 S  
                                         5.748E-01 1.000E+00 0.000E+00 0.000E+00
                                184 S  
                                         1.730E-01 1.000E+00 0.000E+00 0.000E+00
                         185-   187 P  
                                         9.443E+00 0.000E+00 3.790E-02 0.000E+00
                                         2.002E+00 0.000E+00 2.082E-01 0.000E+00
                                         5.463E-01 0.000E+00 5.047E-01 0.000E+00
                         188-   190 P  
                                         1.520E-01 0.000E+00 1.000E+00 0.000E+00
                         191-   195 D  
                                         8.000E-01 0.000E+00 0.000E+00 1.000E+00
  14 C    0.060   2.498  -9.481
  15 C   -5.417   6.511   1.391
  16 C   -0.060  -2.498   9.481
  17 C    3.414  -6.489   0.312
  18 C    2.063   2.520 -11.184
  19 C   -3.414   6.489  -0.312
  20 C   -2.063  -2.520  11.184
  21 C    3.387  -4.782   2.302
  22 C    4.870   4.227   8.467
  23 C   -3.387   4.782  -2.302
  24 C   -4.870  -4.227  -8.467
  25 C    5.358  -3.075   2.651
  26 C    2.899   5.933   8.117
  27 C   -5.358   3.075  -2.651
  28 C   -2.899  -5.933  -8.117
  29 C   -6.349  -3.133   1.077
  30 C    0.872   5.876   9.795
  31 C    6.349   3.133  -1.077
  32 C   -0.872  -5.876  -9.795
  33 C   -6.333  -4.826  -0.916
  34 C   -1.924   4.183  -9.852
  35 C    6.333   4.826   0.916
  36 C    1.924  -4.183   9.852
  37 C    3.718   8.813  -4.813
  38 C    1.759  -0.196  -6.059
  39 C   -3.718  -8.813   4.813
  40 C   -1.759   0.196   6.059
  41 C    4.547   7.183  -6.989
  42 C    0.931  -1.825  -3.883
  43 C   -4.547  -7.183   6.989
  44 C   -0.931   1.825   3.883
  45 H    1.863  -7.796   0.131
                                661 S  
                                         1.874E+01 1.968E-02 0.000E+00 0.000E+00
                                         2.826E+00 1.380E-01 0.000E+00 0.000E+00
                                         6.401E-01 4.783E-01 0.000E+00 0.000E+00
                                662 S  
                                         1.756E-01 1.000E+00 0.000E+00 0.000E+00
  46 H    3.614   1.213 -11.002
  47 H   -1.863   7.796  -0.131
  48 H   -3.614  -1.213  11.002
  49 H    1.808  -4.802   3.603
  50 H    6.450   4.207   7.165
  51 H   -1.808   4.802  -3.603
  52 H   -6.450  -4.207  -7.165
  53 H   -4.788  -1.829   1.292
  54 H   -0.689   7.179   9.580
  55 H    4.788   1.829  -1.292
  56 H    0.689  -7.179  -9.580
  57 H   -4.738  -4.835  -2.199
  58 H   -3.519   4.174  -8.569
  59 H    4.738   4.835   2.199
  60 H    3.519  -4.174   8.569
  61 H   -6.850  -0.721   5.128
  62 H    1.373   8.288   5.743
  63 H    6.850   0.721  -5.128
  64 H   -1.373  -8.288  -5.743
  65 H   -6.359  -8.473  -3.999
  66 H   -1.898   0.535  -6.769
  67 H    6.359   8.473   3.999
  68 H    1.898  -0.535   6.769
  69 H    3.324   7.487  -8.616
  70 H    2.153  -1.521  -2.255
  71 H   -3.324  -7.487   8.616
  72 H   -2.153   1.521   2.255
  73 H    6.502   7.503  -7.543
  74 H   -1.024  -1.505  -3.328
  75 H   -6.502  -7.503   7.543
  76 H    1.024   1.505   3.328
  77 H    4.350   5.197  -6.479
  78 H    1.127  -3.811  -4.392
  79 H   -4.350  -5.197   6.479
  80 H   -1.127   3.811   4.392

 *******************************************************************************
 FINISHED BASIS SET HANDLING 
 *******************************************************************************

 INFORMATION **** SET_MPP **** PCRYSTAL CALCULATION
 INFORMATION **** READM2 **** NEW DEFAULT: FOCK/KS MATRIX MIXING SET TO 30 %
 INFORMATION **** READM2 **** NEW DEFAULT: FULL DIRECT SCF MODE
 INFORMATION **** READM2 **** NEW DEFAULT: COULOMB BIPOLAR BUFFER SET TO 32 Mb
 INFORMATION **** READM2 **** NEW DEFAULT: EXCHANGE BIPOLAR BUFFER SET TO 32 Mb

 *******************************************************************************
 NEW DEFAULT: DFT INTEGRATION GRID INCREASED TO XLGRID
 NEW DEFAULT: DIIS ACCELERATOR ACTIVE
 USE KEYWORD NODIIS TO TURN IT OFF
 *******************************************************************************

 INFORMATION **** RDDFTP **** PBEh-3c calculation
 INFORMATION **** RDDFTP **** PBEh hybrid functional combined with D3 and gCP

PLEASE CITE:
(1) PBEh-3c Reference
 S. Grimme, J. G. Brandenburg, C. Bannwarth, and A. Hansen, 
 J. Chem. Phys. 143, 054107 (2015)
(2) DFT-D3 Reference
 S. Grimme, J. Antony, S. Ehrlich, and H. Krieg, J. Chem. Phys. 132, 154104 (2010)
(3) gCP Reference
 H. Kruse and S. Grimme J. Chem. Phys, 136, 154101 (2012)
 J. G. Brandenburg, M. Alessio, B. Civalleri, M. F. Peintinger
 T. Bredow, and S. Grimme, J. Phys. Chem. A, 117, 9282 (2013) 

 WARNING **** RDDFTP **** PBEh-3c has to be combined with def2-mSVP basis set
 WARNING **** RDDFTP **** Note: Harmonic frequencies are scaled by 0.95
 WARNING **** RDDFTP **** as recommended in original publication
 INFORMATION **** TOLDEE **** SCF TOL ON TOTAL ENERGY SET TO           9
 INFORMATION **** TOLINTEG **** COULOMB AND EXCHANGE SERIES TOLERANCES MODIFIED
 INFORMATION **** MAXCYCLE **** MAX NUMBER OF SCF CYCLES SET TO          30
 WARNING **** READM2 **** PROBABLE LOSS IN FREQCALC ACCURACY; SCF TOL LT          10
 *******************************************************************************
 N. OF ATOMS PER CELL        80  COULOMB OVERLAP TOL         (T1) 10**   -8
 NUMBER OF SHELLS           380  COULOMB PENETRATION TOL     (T2) 10**   -8
 NUMBER OF AO               732  EXCHANGE OVERLAP TOL        (T3) 10**   -8
 N. OF ELECTRONS PER CELL   320  EXCHANGE PSEUDO OVP (F(G))  (T4) 10**   -8
 CORE ELECTRONS PER CELL     88  EXCHANGE PSEUDO OVP (P(G))  (T5) 10**  -24
 N. OF SYMMETRY OPERATORS     4  POLE ORDER IN MONO ZONE                  4
 *******************************************************************************
 TYPE OF CALCULATION :  RESTRICTED CLOSED SHELL
 KOHN-SHAM HAMILTONIAN

 (EXCHANGE)[CORRELATION] FUNCTIONAL:(PBEh-3c)[PBEh-3c]


 HYBRID EXCHANGE - PERCENTAGE OF FOCK EXCHANGE    42.0000

 CAPPA:IS1  4;IS2  4;IS3  2; K PTS MONK NET  18; SYMMOPS:K SPACE   4;G SPACE   4

 *******************************************************************************
 MAX NUMBER OF SCF CYCLES      30  CONVERGENCE ON DELTAP        10**-19
 WEIGHT OF F(I) IN F(I+1)      50% CONVERGENCE ON ENERGY        10**- 9
 SHRINK. FACT.(MONKH.)    4  4  2  NUMBER OF K POINTS IN THE IBZ     18
 SHRINKING FACTOR(GILAT NET)    4  NUMBER OF K POINTS(GILAT NET)     18
 *******************************************************************************
 *** K POINTS COORDINATES (OBLIQUE COORDINATES IN UNITS OF IS =  4)
   1-R(  0  0  0)   2-C(  1  0  0)   3-R(  2  0  0)   4-C(  0  1  0)
   5-C(  1  1  0)   6-C(  2  1  0)   7-R(  0  2  0)   8-C(  1  2  0)
   9-R(  2  2  0)  10-R(  0  0  1)  11-C(  1  0  1)  12-R(  2  0  1)
  13-C(  0  1  1)  14-C(  1  1  1)  15-C(  2  1  1)  16-R(  0  2  1)
  17-C(  1  2  1)  18-R(  2  2  1)

 DIRECT LATTICE VECTORS COMPON. (A.U.)     RECIP. LATTICE VECTORS COMPON. (A.U.) 
        X            Y            Z              X            Y            Z
   13.7347105    0.0000000   -0.1032093      0.4592062    0.0000000    0.2313668
   -0.0000000   18.0173637   -0.0000000     -0.0000000    0.3487294   -0.0000000
  -10.9550874    0.0000000   21.7431507      0.0021797    0.0000000    0.2900713

 DISK SPACE FOR EIGENVECTORS (FTN 10)    15003072 REALS

 SYMMETRY ADAPTION OF THE BLOCH FUNCTIONS ENABLED
 TTTTTTTTTTTTTTTTTTTTTTTTTTTTTT gordsh1     TELAPSE        4.17 TCPU        2.17

 MATRIX SIZE: P(G) 2151704, F(G)  201208, P(G) IRR  272912, F(G) IRR   51073
 MAX G-VECTOR INDEX FOR 1- AND 2-ELECTRON INTEGRALS  97

 TTTTTTTTTTTTTTTTTTTTTTTTTTTTTT INPUT       TELAPSE        4.28 TCPU        2.27

 NEIGHBORS OF THE NON-EQUIVALENT ATOMS

 N = NUMBER OF NEIGHBORS AT DISTANCE R
    ATOM  N     R/ANG      R/AU   NEIGHBORS (ATOM LABELS AND CELL INDICES)
   1 O    1     0.9823     1.8564   61 H    1 0 0
   1 O    1     1.3486     2.5484   25 C    0 0 0
   1 O    1     2.1567     4.0755   68 H    0 0 0
   1 O    1     2.3592     4.4582   21 C    0 0 0
   1 O    1     2.4047     4.5442   29 C    1 0 0
   1 O    1     2.5954     4.9045   49 H    0 0 0

   5 O    1     1.2312     2.3266   37 C    0 0 0
   5 O    1     1.7126     3.2363   64 H    0 1 0
   5 O    1     2.2619     4.2743    9 N    0 1 0
   5 O    1     2.3935     4.5230   41 C    0 0 0
   5 O    1     2.4289     4.5899   45 H    0 1 0
   5 O    1     2.6295     4.9690   69 H    0 0 0

   9 N    1     1.0123     1.9129   65 H    1 0 0
   9 N    1     1.3419     2.5358   37 C    0-1 0
   9 N    1     1.4079     2.6605   13 C    0 0 0
   9 N    1     2.2619     4.2743    5 O    0-1 0
   9 N    1     2.3915     4.5192   33 C    1 0 0
   9 N    1     2.4042     4.5432   41 C    0-1 0

  13 C    1     1.3914     2.6294   17 C    0 0 0
  13 C    1     1.3917     2.6300   33 C    1 0 0
  13 C    1     1.4079     2.6605    9 N    0 0 0
  13 C    1     2.0521     3.8779   65 H    1 0 0
  13 C    1     2.1463     4.0560   57 H    1 0 0
  13 C    1     2.1558     4.0739   45 H    0 0 0

  17 C    1     1.0777     2.0366   45 H    0 0 0
  17 C    1     1.3871     2.6213   21 C    0 0 0
  17 C    1     1.3914     2.6294   13 C    0 0 0
  17 C    1     2.1336     4.0319   49 H    0 0 0
  17 C    1     2.3924     4.5210   33 C    1 0 0
  17 C    1     2.4192     4.5716   25 C    0 0 0

  21 C    1     1.0830     2.0466   49 H    0 0 0
  21 C    1     1.3871     2.6213   17 C    0 0 0
  21 C    1     1.3922     2.6308   25 C    0 0 0
  21 C    1     2.1247     4.0151   45 H    0 0 0
  21 C    1     2.3592     4.4582    1 O    0 0 0
  21 C    1     2.3943     4.5245   29 C    1 0 0

  25 C    1     1.3486     2.5484    1 O    0 0 0
  25 C    1     1.3922     2.6308   21 C    0 0 0
  25 C    1     1.3926     2.6317   29 C    1 0 0
  25 C    1     1.9449     3.6753   61 H    1 0 0
  25 C    1     2.1493     4.0616   49 H    0 0 0
  25 C    1     2.1537     4.0699   53 H    1 0 0

  29 C    1     1.0822     2.0451   53 H    0 0 0
  29 C    1     1.3837     2.6148   33 C    0 0 0
  29 C    1     1.3926     2.6317   25 C   -1 0 0
  29 C    1     2.1315     4.0279   57 H    0 0 0
  29 C    1     2.3943     4.5245   21 C   -1 0 0
  29 C    1     2.4047     4.5442    1 O   -1 0 0

  33 C    1     1.0831     2.0468   57 H    0 0 0
  33 C    1     1.3837     2.6148   29 C    0 0 0
  33 C    1     1.3917     2.6300   13 C   -1 0 0
  33 C    1     2.1325     4.0299   53 H    0 0 0
  33 C    1     2.3915     4.5192    9 N   -1 0 0
  33 C    1     2.3924     4.5210   17 C   -1 0 0

  37 C    1     1.2312     2.3266    5 O    0 0 0
  37 C    1     1.3419     2.5358    9 N    0 1 0
  37 C    1     1.5038     2.8418   41 C    0 0 0
  37 C    1     2.0089     3.7963   65 H    1 1 0
  37 C    1     2.1330     4.0309   77 H    0 0 0
  37 C    1     2.1416     4.0470   69 H    0 0 0

  41 C    1     1.0886     2.0571   73 H    0 0 0
  41 C    1     1.0890     2.0578   69 H    0 0 0
  41 C    1     1.0899     2.0596   77 H    0 0 0
  41 C    1     1.5038     2.8418   37 C    0 0 0
  41 C    1     2.3935     4.5230    5 O    0 0 0
  41 C    1     2.4042     4.5432    9 N    0 1 0

  45 H    1     1.0777     2.0366   17 C    0 0 0
  45 H    1     2.1247     4.0151   21 C    0 0 0
  45 H    1     2.1558     4.0739   13 C    0 0 0
  45 H    1     2.3569     4.4538   47 H    0-1 0
  45 H    1     2.4266     4.5856   49 H    0 0 0
  45 H    1     2.4289     4.5899    5 O    0-1 0

  49 H    1     1.0830     2.0466   21 C    0 0 0
  49 H    1     2.1336     4.0319   17 C    0 0 0
  49 H    1     2.1493     4.0616   25 C    0 0 0
  49 H    1     2.4266     4.5856   45 H    0 0 0
  49 H    1     2.5954     4.9045    1 O    0 0 0
  49 H    1     2.7991     5.2896   60 H    0 0 0

  53 H    1     1.0822     2.0451   29 C    0 0 0
  53 H    1     2.1325     4.0299   33 C    0 0 0
  53 H    1     2.1537     4.0699   25 C   -1 0 0
  53 H    1     2.3126     4.3702   72 H    0 0 0
  53 H    1     2.3782     4.4942   61 H    0 0 0
  53 H    1     2.4379     4.6070   57 H    0 0 0

  57 H    1     1.0831     2.0468   33 C    0 0 0
  57 H    1     2.1315     4.0279   29 C    0 0 0
  57 H    1     2.1463     4.0560   13 C   -1 0 0
  57 H    1     2.3131     4.3711   65 H    0 0 0
  57 H    1     2.4379     4.6070   53 H    0 0 0
  57 H    1     2.5948     4.9035    9 N   -1 0 0

  61 H    1     0.9823     1.8564    1 O   -1 0 0
  61 H    1     1.7126     3.2363    8 O    0 0 0
  61 H    1     1.9449     3.6753   25 C   -1 0 0
  61 H    1     2.3782     4.4942   53 H    0 0 0
  61 H    1     2.5092     4.7418   29 C    0 0 0
  61 H    1     2.7815     5.2562   40 C    0 0 0

  65 H    1     1.0123     1.9129    9 N   -1 0 0
  65 H    1     2.0089     3.7963   37 C   -1-1 0
  65 H    1     2.0521     3.8779   13 C   -1 0 0
  65 H    1     2.1567     4.0755    4 O    0 0 0
  65 H    1     2.1668     4.0947   73 H   -1-1 0
  65 H    1     2.3131     4.3711   57 H    0 0 0

  69 H    1     1.0890     2.0578   41 C    0 0 0
  69 H    1     1.7442     3.2960   77 H    0 0 0
  69 H    1     1.7746     3.3534   73 H    0 0 0
  69 H    1     2.1416     4.0470   37 C    0 0 0
  69 H    1     2.3126     4.3702   56 H    0 1 0
  69 H    1     2.6295     4.9690    5 O    0 0 0

  73 H    1     1.0886     2.0571   41 C    0 0 0
  73 H    1     1.7613     3.3283   77 H    0 0 0
  73 H    1     1.7746     3.3534   69 H    0 0 0
  73 H    1     2.1668     4.0947   65 H    1 1 0
  73 H    1     2.1764     4.1128   37 C    0 0 0
  73 H    1     2.5363     4.7929    9 N    0 1 0

  77 H    1     1.0899     2.0596   41 C    0 0 0
  77 H    1     1.7442     3.2960   69 H    0 0 0
  77 H    1     1.7613     3.3283   73 H    0 0 0
  77 H    1     2.1330     4.0309   37 C    0 0 0
  77 H    1     2.6866     5.0770    6 O    0 0 0
  77 H    1     2.8057     5.3020   63 H    0 0 0


 SYMMETRY ALLOWED INTERNAL DEGREE(S) OF FREEDOM:  60
 TTTTTTTTTTTTTTTTTTTTTTTTTTTTTT SYMM        TELAPSE        4.31 TCPU        2.31
 TTTTTTTTTTTTTTTTTTTTTTTTTTTTTT INT_SCREEN  TELAPSE        4.51 TCPU        2.50

 *******************************************************************************
 *                                                                             *
 *                                                                             *
 *         FFFFF  RRRR   EEEE   QQQ   U   U  EEEE  N   N   CCC  Y   Y          *
 *         F      R   R  E     Q   Q  U   U  E     NN  N  C      Y Y           *
 *         FFF    RRRR   EEEE  Q   Q  U   U  EEEE  N N N  C       Y            *
 *         F      R   R  E     Q  QQ  U   U  E     N  NN  C       Y            *
 *         F      R   R  EEEE   QQ Q   UUU   EEEE  N   N   CCC    Y            *
 *                                                                             *
 *                                                                             *
 * CALCULATION OF PHONON FREQUENCIES AT THE GAMMA POINT.                       *
 *                                                                             *
 * SYMMETRY IS EXPLOITED TO BUILD THE TOTAL HESSIAN MATRIX.                    *
 * (F. PASCALE PHD THESIS TURIN-PARIS 2002)                                    *
 *                                                                             *
 *******************************************************************************


 * INTENSITIES COMPUTED VIA THE BERRY PHASE APPROACH                           *
 *                                                                             *
 * REFERENCES TO BE QUOTED WHEN USING THIS MODULE:                             *
 *                                                                             *
 * F. Pascale, C.M. Zicovich-Wilson, F. Lopez, B. Civalleri                    *
 * R. Orlando, R. Dovesi                                                       *
 * The calculation of the vibration frequencies of crystalline                 *
 * compounds and its implementation in the CRYSTAL code                        *
 * J. Comput. Chem. 25 (2004) 888-897                                          *
 *                                                                             *
 * C.M. Zicovich-Wilson, F. Pascale, C. Roetti, V.R. Saunders,                 *
 * R. Orlando, R. Dovesi                                                       *
 * The calculation of the vibration frequencies of alpha-quartz:               *
 * the effect of hamiltonian and basis set                                     *
 * J. Comput. Chem. 25 (2004) 1873-1881                                        *
 *******************************************************************************



 ATOMS ISOTOPIC MASS (AMU) FOR FREQUENCY CALCULATION 

    1 O      15.9949    2 O      15.9949    3 O      15.9949    4 O      15.9949
    5 O      15.9949    6 O      15.9949    7 O      15.9949    8 O      15.9949
    9 N      14.0031   10 N      14.0031   11 N      14.0031   12 N      14.0031
   13 C      12.0000   14 C      12.0000   15 C      12.0000   16 C      12.0000
   17 C      12.0000   18 C      12.0000   19 C      12.0000   20 C      12.0000
   21 C      12.0000   22 C      12.0000   23 C      12.0000   24 C      12.0000
   25 C      12.0000   26 C      12.0000   27 C      12.0000   28 C      12.0000
   29 C      12.0000   30 C      12.0000   31 C      12.0000   32 C      12.0000
   33 C      12.0000   34 C      12.0000   35 C      12.0000   36 C      12.0000
   37 C      12.0000   38 C      12.0000   39 C      12.0000   40 C      12.0000
   41 C      12.0000   42 C      12.0000   43 C      12.0000   44 C      12.0000
   45 H       1.0078   46 H       1.0078   47 H       1.0078   48 H       1.0078
   49 H       1.0078   50 H       1.0078   51 H       1.0078   52 H       1.0078
   53 H       1.0078   54 H       1.0078   55 H       1.0078   56 H       1.0078
   57 H       1.0078   58 H       1.0078   59 H       1.0078   60 H       1.0078
   61 H       1.0078   62 H       1.0078   63 H       1.0078   64 H       1.0078
   65 H       1.0078   66 H       1.0078   67 H       1.0078   68 H       1.0078
   69 H       1.0078   70 H       1.0078   71 H       1.0078   72 H       1.0078
   73 H       1.0078   74 H       1.0078   75 H       1.0078   76 H       1.0078
   77 H       1.0078   78 H       1.0078   79 H       1.0078   80 H       1.0078

 INFORMATION CONCERNING THE SCF+GRADIENT CALCULATIONS REQUIRED FOR
 GENERATING FREQUENCIES. IN PRINCIPLE 3N+1 SCF + GRADIENT
 CALCULATIONS  ARE REQUIRED;
 FOR EACH OF THEM THE REMAINING POINT SYMMETRY IS INDICATED.
 POINT SYMMETRY PERMITS TO GENERATE GRADIENTS FOR DISPLACEMENT B 
 STARTING FROM THE GRADIENT GENERATED BY DISPLACEMENT A.

   N   LABEL SYMBOL DISPLACEMENT     SYM. 

   1     EQUILIBRIUM GEOMETRY            4

   2      1   O            DX           1
   3      1   O            DY           1
   4      1   O            DZ           1
   5      5   O            DX           1
   6      5   O            DY           1
   7      5   O            DZ           1
   8      9   N            DX           1
   9      9   N            DY           1
  10      9   N            DZ           1
  11     13   C            DX           1
  12     13   C            DY           1
  13     13   C            DZ           1
  14     17   C            DX           1
  15     17   C            DY           1
  16     17   C            DZ           1
  17     21   C            DX           1
  18     21   C            DY           1
  19     21   C            DZ           1
  20     25   C            DX           1
  21     25   C            DY           1
  22     25   C            DZ           1
  23     29   C            DX           1
  24     29   C            DY           1
  25     29   C            DZ           1
  26     33   C            DX           1
  27     33   C            DY           1
  28     33   C            DZ           1
  29     37   C            DX           1
  30     37   C            DY           1
  31     37   C            DZ           1
  32     41   C            DX           1
  33     41   C            DY           1
  34     41   C            DZ           1
  35     45   H            DX           1
  36     45   H            DY           1
  37     45   H            DZ           1
  38     49   H            DX           1
  39     49   H            DY           1
  40     49   H            DZ           1
  41     53   H            DX           1
  42     53   H            DY           1
  43     53   H            DZ           1
  44     57   H            DX           1
  45     57   H            DY           1
  46     57   H            DZ           1
  47     61   H            DX           1
  48     61   H            DY           1
  49     61   H            DZ           1
  50     65   H            DX           1
  51     65   H            DY           1
  52     65   H            DZ           1
  53     69   H            DX           1
  54     69   H            DY           1
  55     69   H            DZ           1
  56     73   H            DX           1
  57     73   H            DY           1
  58     73   H            DZ           1
  59     77   H            DX           1
  60     77   H            DY           1
  61     77   H            DZ           1
 USE OF RESIDUAL SYMMETRY AFTER DISPLACEMENT

 NUMERICAL GRADIENT COMPUTED WITH A SINGLE DISPLACEMENT (+DX) FOR EACH
 CARTESIAN COORDINATE WITH RESPECT TO THE EQUILIBRIUM CONFIGURATION
 DX=  0.003 ANGSTROM
 NUMBER OF IRREDUCIBLE ATOMS                    20
 NUMBER OF SCF+GRADIENT CALCULATIONS            61

  ATOM  SYMOP  ORDER
    1      1      1
    5      1      1
    9      1      1
   13      1      1
   17      1      1
   21      1      1
   25      1      1
   29      1      1
   33      1      1
   37      1      1
   41      1      1
   45      1      1
   49      1      1
   53      1      1
   57      1      1
   61      1      1
   65      1      1
   69      1      1
   73      1      1
   77      1      1

 ATOM  : IRREDUCIBLE ATOM
 SYMOP : NUMBER OF SYMMETRY OPERATORS THAT DOESN'T MOVE THE IRREDUCIBLE ATOM
 ORDER : MAXIMUM ORDER AMONG THE OPERATORS OF THE IRREDUCIBLE ATOM

 *******************************************************************************


 GCALCO - MAX INDICES DIRECT LATTICE VECTOR    20    14    11
 NO.OF VECTORS CREATED 6999 STARS 1869 RMAX   207.93429 BOHR

 CAPPA:IS1  4;IS2  4;IS3  2; K PTS MONK NET  18; SYMMOPS:K SPACE   4;G SPACE   4

 TTTTTTTTTTTTTTTTTTTTTTTTTTTTTT gordsh1     TELAPSE        4.54 TCPU        2.53

 MATRIX SIZE: P(G) 2151704, F(G)  201208, P(G) IRR  272912, F(G) IRR   51073
 MAX G-VECTOR INDEX FOR 1- AND 2-ELECTRON INTEGRALS  97

 TTTTTTTTTTTTTTTTTTTTTTTTTTTTTT INPUT       TELAPSE        4.56 TCPU        2.55

 SYMMETRY ALLOWED INTERNAL DEGREE(S) OF FREEDOM:  60
 TTTTTTTTTTTTTTTTTTTTTTTTTTTTTT SYMM        TELAPSE        4.58 TCPU        2.57
 TTTTTTTTTTTTTTTTTTTTTTTTTTTTTT INT_SCREEN  TELAPSE        4.59 TCPU        2.59
 INFORMATION **** EXCBUF **** EXCH. BIPO BUFFER: WORDS USED =     3660156

 DFT PARAMETERS

     ATOM       ELECTRONS   NET CHARGE   R(ANGSTROM)
   1   8  O       8.0000      0.0000     0.74000000
   9   7  N       7.0000      0.0000     0.74000000
  13   6  C       6.0000      0.0000     0.77000000
  45   1  H       1.0000      0.0000     1.11000000

 SIZE OF GRID=    1013015
 TTTTTTTTTTTTTTTTTTTTTTTTTTTTTT MAKE_GRID2  TELAPSE        7.61 TCPU        5.60
 BECKE WEIGHT FUNCTION
 RADSAFE =     2.00
 TOLERANCES - DENSITY:10**- 6; POTENTIAL:10**- 9; GRID WGT:10**-14

 RADIAL INTEGRATION  - INTERVALS (POINTS,UPPER LIMIT):            1( 99,  4.0*R)

 ANGULAR INTEGRATION - INTERVALS (ACCURACY LEVEL [N. POINTS] UPPER LIMIT):
  1(  6[ 146]   0.2)  2( 11[ 302]   0.5)  3( 14[ 590]   0.9)  4( 18[1454]   3.5)
  5( 14[ 590]9999.0)
 TTTTTTTTTTTTTTTTTTTTTTTTTTTTTT INT_CALC    TELAPSE        7.64 TCPU        5.63

 *******************************************************************************
 F1 vol step8 freq - PBEh-3c                                                     
 CRYSTAL - SCF - TYPE OF CALCULATION :  RESTRICTED CLOSED SHELL
 *******************************************************************************

 CAPPA:IS1  4;IS2  4;IS3  2; K PTS MONK NET  18; SYMMOPS:K SPACE   4;G SPACE   4

 TTTTTTTTTTTTTTTTTTTTTTTTTTTTTT SDIK        TELAPSE        7.91 TCPU        5.90

 AAAAAAAAAAAAAAAAAAAAAAAAAAAAAAAAAAAAAAAAAAAAAAAAAAAAAAAAAAAAAAAAAAAAAAAAAAAAAAA
         ATOMIC WAVEFUNCTION(S)


 NUCLEAR CHARGE  8.0  SYMMETRY SPECIES            S    P
 N. ELECTRONS    8.0  NUMBER OF PRIMITIVE GTOS    8    4
                      NUMBER OF CONTRACTED GTOS   4    2
                      NUMBER OF CLOSED SHELLS     2    0
                      OPEN SHELL OCCUPATION       0    4

  ZNUC SCFIT  TOTAL HF ENERGY   KINETIC ENERGY   VIRIAL THEOREM ACCURACY
   8.0  12   -7.477373220E+01  7.477365593E+01 -2.000001020E+00  3.8E-06

 NUCLEAR CHARGE  7.0  SYMMETRY SPECIES            S    P
 N. ELECTRONS    7.0  NUMBER OF PRIMITIVE GTOS    8    4
                      NUMBER OF CONTRACTED GTOS   4    2
                      NUMBER OF CLOSED SHELLS     2    0
                      OPEN SHELL OCCUPATION       0    3

  ZNUC SCFIT  TOTAL HF ENERGY   KINETIC ENERGY   VIRIAL THEOREM ACCURACY
   7.0   9   -5.437948210E+01  5.437948297E+01 -1.999999984E+00  1.2E-06

 NUCLEAR CHARGE  6.0  SYMMETRY SPECIES            S    P
 N. ELECTRONS    6.0  NUMBER OF PRIMITIVE GTOS    8    4
                      NUMBER OF CONTRACTED GTOS   4    2
                      NUMBER OF CLOSED SHELLS     2    0
                      OPEN SHELL OCCUPATION       0    2

  ZNUC SCFIT  TOTAL HF ENERGY   KINETIC ENERGY   VIRIAL THEOREM ACCURACY
   6.0   9   -3.767634636E+01  3.767630973E+01 -2.000000972E+00  4.2E-06

 NUCLEAR CHARGE  1.0  SYMMETRY SPECIES            S
 N. ELECTRONS    1.0  NUMBER OF PRIMITIVE GTOS    4
                      NUMBER OF CONTRACTED GTOS   2
                      NUMBER OF CLOSED SHELLS     0
                      OPEN SHELL OCCUPATION       1

  ZNUC SCFIT  TOTAL HF ENERGY   KINETIC ENERGY   VIRIAL THEOREM ACCURACY
   1.0   1   -4.977266687E-01  5.190767460E-01 -1.958869132E+00  2.2E-17

 AAAAAAAAAAAAAAAAAAAAAAAAAAAAAAAAAAAAAAAAAAAAAAAAAAAAAAAAAAAAAAAAAAAAAAAAAAAAAAA

 TTTTTTTTTTTTTTTTTTTTTTTTTTTTTT MOQGAD      TELAPSE        8.54 TCPU        6.42
 TTTTTTTTTTTTTTTTTTTTTTTTTTTTTT SHELLXN     TELAPSE       12.09 TCPU        9.96
 TTTTTTTTTTTTTTTTTTTTTTTTTTTTTT MONMO3      TELAPSE       13.07 TCPU       10.94
 NUMERICALLY INTEGRATED DENSITY    319.9998783145
 TTTTTTTTTTTTTTTTTTTTTTTTTTTTTT NUMDFT      TELAPSE       13.48 TCPU       11.35
 CYC   0 ETOT(AU) -2.070582677422E+03 DETOT -2.07E+03 tst  0.00E+00 PX  1.00E+00
 TTTTTTTTTTTTTTTTTTTTTTTTTTTTTT DIIS        TELAPSE       13.52 TCPU       11.39
 TTTTTTTTTTTTTTTTTTTTTTTTTTTTTT FDIK        TELAPSE       14.11 TCPU       11.98
 INSULATING STATE
 TOP OF VALENCE BANDS -    BAND    160; K    1; EIG -2.8306379E-01 AU
 BOTTOM OF VIRTUAL BANDS - BAND    161; K    7; EIG -1.2420726E-01 AU
 INDIRECT ENERGY BAND GAP:   4.3227 eV
 BOTTOM OF VIRTUAL BANDS - BAND    161; K    1; EIG -1.1918665E-01 AU
 TTTTTTTTTTTTTTTTTTTTTTTTTTTTTT PDIG        TELAPSE       14.47 TCPU       12.34
 TTTTTTTTTTTTTTTTTTTTTTTTTTTTTT MOQGAD      TELAPSE       14.47 TCPU       12.34
 TTTTTTTTTTTTTTTTTTTTTTTTTTTTTT SHELLXN     TELAPSE       18.20 TCPU       16.03
 TTTTTTTTTTTTTTTTTTTTTTTTTTTTTT MONMO3      TELAPSE       19.20 TCPU       17.03
 NUMERICALLY INTEGRATED DENSITY    319.9998898495
 TTTTTTTTTTTTTTTTTTTTTTTTTTTTTT NUMDFT      TELAPSE       19.61 TCPU       17.43
 CYC   1 ETOT(AU) -2.057238754319E+03 DETOT  1.33E+01 tst  0.00E+00 PX  1.00E+00
 TTTTTTTTTTTTTTTTTTTTTTTTTTTTTT DIIS        TELAPSE       19.64 TCPU       17.47
 DIIS TEST: 0.17718E+01 AT SCF   CYCLE   1 - MIX   50 %
 TTTTTTTTTTTTTTTTTTTTTTTTTTTTTT FDIK        TELAPSE       20.24 TCPU       18.06
 INSULATING STATE
 TOP OF VALENCE BANDS -    BAND    160; K   10; EIG -2.5065875E-01 AU
 TOP OF VALENCE BANDS -    BAND    160; K    1; EIG -2.5072091E-01 AU
 BOTTOM OF VIRTUAL BANDS - BAND    161; K    1; EIG -4.6765784E-02 AU
 INDIRECT ENERGY BAND GAP:   5.5482 eV
 TTTTTTTTTTTTTTTTTTTTTTTTTTTTTT PDIG        TELAPSE       20.60 TCPU       18.43
 TTTTTTTTTTTTTTTTTTTTTTTTTTTTTT MOQGAD      TELAPSE       20.61 TCPU       18.43
 TTTTTTTTTTTTTTTTTTTTTTTTTTTTTT SHELLXN     TELAPSE       24.32 TCPU       22.14
 TTTTTTTTTTTTTTTTTTTTTTTTTTTTTT MONMO3      TELAPSE       25.34 TCPU       23.16
 NUMERICALLY INTEGRATED DENSITY    319.9998831017
 TTTTTTTTTTTTTTTTTTTTTTTTTTTTTT NUMDFT      TELAPSE       25.74 TCPU       23.56
 CYC   2 ETOT(AU) -2.057707712065E+03 DETOT -4.69E-01 tst  9.57E-04 PX  1.29E-01
 TTTTTTTTTTTTTTTTTTTTTTTTTTTTTT DIIS        TELAPSE       25.77 TCPU       23.59
 DIIS TEST: 0.14457E+00 AT SCF   CYCLE   2 - DIIS ACTIVE - HISTORY:     2 CYCLES
 TTTTTTTTTTTTTTTTTTTTTTTTTTTTTT FDIK        TELAPSE       26.39 TCPU       24.19
 INSULATING STATE
 TOP OF VALENCE BANDS -    BAND    160; K   10; EIG -2.4242445E-01 AU
 TOP OF VALENCE BANDS -    BAND    160; K    1; EIG -2.4249367E-01 AU
 BOTTOM OF VIRTUAL BANDS - BAND    161; K    7; EIG -4.4541654E-03 AU
 INDIRECT ENERGY BAND GAP:   6.4755 eV
 BOTTOM OF VIRTUAL BANDS - BAND    161; K    1; EIG -1.9287581E-03 AU
 TTTTTTTTTTTTTTTTTTTTTTTTTTTTTT PDIG        TELAPSE       26.75 TCPU       24.55
 TTTTTTTTTTTTTTTTTTTTTTTTTTTTTT MOQGAD      TELAPSE       26.75 TCPU       24.55
 TTTTTTTTTTTTTTTTTTTTTTTTTTTTTT SHELLXN     TELAPSE       30.48 TCPU       28.27
 TTTTTTTTTTTTTTTTTTTTTTTTTTTTTT MONMO3      TELAPSE       31.49 TCPU       29.29
 NUMERICALLY INTEGRATED DENSITY    319.9998784452
 TTTTTTTTTTTTTTTTTTTTTTTTTTTTTT NUMDFT      TELAPSE       31.89 TCPU       29.69
 CYC   3 ETOT(AU) -2.057729913309E+03 DETOT -2.22E-02 tst  2.10E-04 PX  4.32E-02
 TTTTTTTTTTTTTTTTTTTTTTTTTTTTTT DIIS        TELAPSE       31.92 TCPU       29.72
 DIIS TEST: 0.80952E-01 AT SCF   CYCLE   3 - DIIS ACTIVE - HISTORY:     3 CYCLES
 TTTTTTTTTTTTTTTTTTTTTTTTTTTTTT FDIK        TELAPSE       32.51 TCPU       30.30
 INSULATING STATE
 TOP OF VALENCE BANDS -    BAND    160; K   10; EIG -2.5274441E-01 AU
 TOP OF VALENCE BANDS -    BAND    160; K    1; EIG -2.5285892E-01 AU
 BOTTOM OF VIRTUAL BANDS - BAND    161; K    7; EIG -1.1466556E-02 AU
 INDIRECT ENERGY BAND GAP:   6.5655 eV
 BOTTOM OF VIRTUAL BANDS - BAND    161; K    1; EIG -7.8082019E-03 AU
 TTTTTTTTTTTTTTTTTTTTTTTTTTTTTT PDIG        TELAPSE       32.86 TCPU       30.65
 TTTTTTTTTTTTTTTTTTTTTTTTTTTTTT MOQGAD      TELAPSE       32.87 TCPU       30.66
 TTTTTTTTTTTTTTTTTTTTTTTTTTTTTT SHELLXN     TELAPSE       36.58 TCPU       34.36
 TTTTTTTTTTTTTTTTTTTTTTTTTTTTTT MONMO3      TELAPSE       37.59 TCPU       35.38
 NUMERICALLY INTEGRATED DENSITY    319.9998804542
 TTTTTTTTTTTTTTTTTTTTTTTTTTTTTT NUMDFT      TELAPSE       38.14 TCPU       35.92
 CYC   4 ETOT(AU) -2.057748358817E+03 DETOT -1.84E-02 tst  1.20E-04 PX  3.24E-02
 TTTTTTTTTTTTTTTTTTTTTTTTTTTTTT DIIS        TELAPSE       38.17 TCPU       35.95
 DIIS TEST: 0.91120E-02 AT SCF   CYCLE   4 - DIIS ACTIVE - HISTORY:     4 CYCLES
 TTTTTTTTTTTTTTTTTTTTTTTTTTTTTT FDIK        TELAPSE       38.76 TCPU       36.54
 INSULATING STATE
 TOP OF VALENCE BANDS -    BAND    160; K   10; EIG -2.5042887E-01 AU
 TOP OF VALENCE BANDS -    BAND    160; K    1; EIG -2.5053698E-01 AU
 BOTTOM OF VIRTUAL BANDS - BAND    161; K    7; EIG -9.4854327E-03 AU
 INDIRECT ENERGY BAND GAP:   6.5564 eV
 BOTTOM OF VIRTUAL BANDS - BAND    161; K    1; EIG -6.5487020E-03 AU
 TTTTTTTTTTTTTTTTTTTTTTTTTTTTTT PDIG        TELAPSE       39.11 TCPU       36.89
 TTTTTTTTTTTTTTTTTTTTTTTTTTTTTT MOQGAD      TELAPSE       39.11 TCPU       36.89
 TTTTTTTTTTTTTTTTTTTTTTTTTTTTTT SHELLXN     TELAPSE       42.82 TCPU       40.60
 TTTTTTTTTTTTTTTTTTTTTTTTTTTTTT MONMO3      TELAPSE       43.84 TCPU       41.62
 NUMERICALLY INTEGRATED DENSITY    319.9998800007
 TTTTTTTTTTTTTTTTTTTTTTTTTTTTTT NUMDFT      TELAPSE       44.38 TCPU       42.16
 CYC   5 ETOT(AU) -2.057750510432E+03 DETOT -2.15E-03 tst  9.51E-06 PX  8.01E-03
 TTTTTTTTTTTTTTTTTTTTTTTTTTTTTT DIIS        TELAPSE       44.41 TCPU       42.19
 DIIS TEST: 0.84179E-03 AT SCF   CYCLE   5 - DIIS ACTIVE - HISTORY:     5 CYCLES
 TTTTTTTTTTTTTTTTTTTTTTTTTTTTTT FDIK        TELAPSE       45.01 TCPU       42.78
 INSULATING STATE
 TOP OF VALENCE BANDS -    BAND    160; K   10; EIG -2.5010305E-01 AU
 TOP OF VALENCE BANDS -    BAND    160; K    1; EIG -2.5021258E-01 AU
 BOTTOM OF VIRTUAL BANDS - BAND    161; K    7; EIG -9.1626099E-03 AU
 INDIRECT ENERGY BAND GAP:   6.5563 eV
 BOTTOM OF VIRTUAL BANDS - BAND    161; K    1; EIG -5.8816594E-03 AU
 TTTTTTTTTTTTTTTTTTTTTTTTTTTTTT PDIG        TELAPSE       45.36 TCPU       43.13
 TTTTTTTTTTTTTTTTTTTTTTTTTTTTTT MOQGAD      TELAPSE       45.36 TCPU       43.14
 TTTTTTTTTTTTTTTTTTTTTTTTTTTTTT SHELLXN     TELAPSE       49.12 TCPU       46.83
 TTTTTTTTTTTTTTTTTTTTTTTTTTTTTT MONMO3      TELAPSE       50.12 TCPU       47.84
 NUMERICALLY INTEGRATED DENSITY    319.9998798470
 TTTTTTTTTTTTTTTTTTTTTTTTTTTTTT NUMDFT      TELAPSE       50.66 TCPU       48.38
 CYC   6 ETOT(AU) -2.057750701770E+03 DETOT -1.91E-04 tst  1.43E-06 PX  1.79E-03
 TTTTTTTTTTTTTTTTTTTTTTTTTTTTTT DIIS        TELAPSE       50.70 TCPU       48.41
 DIIS TEST: 0.49133E-04 AT SCF   CYCLE   6 - DIIS ACTIVE - HISTORY:     6 CYCLES
 TTTTTTTTTTTTTTTTTTTTTTTTTTTTTT FDIK        TELAPSE       51.29 TCPU       49.00
 INSULATING STATE
 TOP OF VALENCE BANDS -    BAND    160; K   10; EIG -2.5003040E-01 AU
 TOP OF VALENCE BANDS -    BAND    160; K    1; EIG -2.5013571E-01 AU
 BOTTOM OF VIRTUAL BANDS - BAND    161; K    7; EIG -9.1443782E-03 AU
 INDIRECT ENERGY BAND GAP:   6.5548 eV
 BOTTOM OF VIRTUAL BANDS - BAND    161; K    1; EIG -5.7665441E-03 AU
 TTTTTTTTTTTTTTTTTTTTTTTTTTTTTT PDIG        TELAPSE       51.65 TCPU       49.36
 TTTTTTTTTTTTTTTTTTTTTTTTTTTTTT MOQGAD      TELAPSE       51.65 TCPU       49.37
 TTTTTTTTTTTTTTTTTTTTTTTTTTTTTT SHELLXN     TELAPSE       55.41 TCPU       53.05
 TTTTTTTTTTTTTTTTTTTTTTTTTTTTTT MONMO3      TELAPSE       56.45 TCPU       54.10
 NUMERICALLY INTEGRATED DENSITY    319.9998798372
 TTTTTTTTTTTTTTTTTTTTTTTTTTTTTT NUMDFT      TELAPSE       56.85 TCPU       54.50
 CYC   7 ETOT(AU) -2.057750712012E+03 DETOT -1.02E-05 tst  2.19E-07 PX  5.03E-04
 TTTTTTTTTTTTTTTTTTTTTTTTTTTTTT DIIS        TELAPSE       56.90 TCPU       54.55
 DIIS TEST: 0.78471E-05 AT SCF   CYCLE   7 - DIIS ACTIVE - HISTORY:     7 CYCLES
 TTTTTTTTTTTTTTTTTTTTTTTTTTTTTT FDIK        TELAPSE       57.49 TCPU       55.13
 INSULATING STATE
 TOP OF VALENCE BANDS -    BAND    160; K   10; EIG -2.5006760E-01 AU
 TOP OF VALENCE BANDS -    BAND    160; K    1; EIG -2.5017489E-01 AU
 BOTTOM OF VIRTUAL BANDS - BAND    161; K    7; EIG -9.1510607E-03 AU
 INDIRECT ENERGY BAND GAP:   6.5557 eV
 BOTTOM OF VIRTUAL BANDS - BAND    161; K    1; EIG -5.8186121E-03 AU
 TTTTTTTTTTTTTTTTTTTTTTTTTTTTTT PDIG        TELAPSE       57.84 TCPU       55.48
 TTTTTTTTTTTTTTTTTTTTTTTTTTTTTT MOQGAD      TELAPSE       57.85 TCPU       55.49
 TTTTTTTTTTTTTTTTTTTTTTTTTTTTTT SHELLXN     TELAPSE       61.55 TCPU       59.19
 TTTTTTTTTTTTTTTTTTTTTTTTTTTTTT MONMO3      TELAPSE       62.57 TCPU       60.21
 NUMERICALLY INTEGRATED DENSITY    319.9998798300
 TTTTTTTTTTTTTTTTTTTTTTTTTTTTTT NUMDFT      TELAPSE       63.11 TCPU       60.75
 CYC   8 ETOT(AU) -2.057750714510E+03 DETOT -2.50E-06 tst  1.50E-08 PX  1.84E-04
 TTTTTTTTTTTTTTTTTTTTTTTTTTTTTT DIIS        TELAPSE       63.16 TCPU       60.80
 DIIS TEST: 0.29490E-06 AT SCF   CYCLE   8 - DIIS ACTIVE - HISTORY:     8 CYCLES
 TTTTTTTTTTTTTTTTTTTTTTTTTTTTTT FDIK        TELAPSE       63.75 TCPU       61.39
 INSULATING STATE
 TOP OF VALENCE BANDS -    BAND    160; K   10; EIG -2.5007676E-01 AU
 TOP OF VALENCE BANDS -    BAND    160; K    1; EIG -2.5018334E-01 AU
 BOTTOM OF VIRTUAL BANDS - BAND    161; K    7; EIG -9.1555474E-03 AU
 INDIRECT ENERGY BAND GAP:   6.5558 eV
 BOTTOM OF VIRTUAL BANDS - BAND    161; K    1; EIG -5.8218781E-03 AU
 TTTTTTTTTTTTTTTTTTTTTTTTTTTTTT PDIG        TELAPSE       64.10 TCPU       61.74
 TTTTTTTTTTTTTTTTTTTTTTTTTTTTTT MOQGAD      TELAPSE       64.11 TCPU       61.75
 TTTTTTTTTTTTTTTTTTTTTTTTTTTTTT SHELLXN     TELAPSE       67.82 TCPU       65.45
 TTTTTTTTTTTTTTTTTTTTTTTTTTTTTT MONMO3      TELAPSE       68.84 TCPU       66.47
 NUMERICALLY INTEGRATED DENSITY    319.9998798309
 TTTTTTTTTTTTTTTTTTTTTTTTTTTTTT NUMDFT      TELAPSE       69.38 TCPU       67.01
 CYC   9 ETOT(AU) -2.057750714759E+03 DETOT -2.49E-07 tst  1.34E-09 PX  5.21E-05
 TTTTTTTTTTTTTTTTTTTTTTTTTTTTTT DIIS        TELAPSE       69.41 TCPU       67.04
 DIIS TEST: 0.72543E-07 AT SCF   CYCLE   9 - DIIS ACTIVE - HISTORY:     9 CYCLES
 TTTTTTTTTTTTTTTTTTTTTTTTTTTTTT FDIK        TELAPSE       70.00 TCPU       67.63
 INSULATING STATE
 TOP OF VALENCE BANDS -    BAND    160; K   10; EIG -2.5007535E-01 AU
 TOP OF VALENCE BANDS -    BAND    160; K    1; EIG -2.5018224E-01 AU
 BOTTOM OF VIRTUAL BANDS - BAND    161; K    7; EIG -9.1605278E-03 AU
 INDIRECT ENERGY BAND GAP:   6.5556 eV
 BOTTOM OF VIRTUAL BANDS - BAND    161; K    1; EIG -5.8193867E-03 AU
 TTTTTTTTTTTTTTTTTTTTTTTTTTTTTT PDIG        TELAPSE       70.35 TCPU       67.98
 TTTTTTTTTTTTTTTTTTTTTTTTTTTTTT MOQGAD      TELAPSE       70.35 TCPU       67.98
 TTTTTTTTTTTTTTTTTTTTTTTTTTTTTT SHELLXN     TELAPSE       74.06 TCPU       71.69
 TTTTTTTTTTTTTTTTTTTTTTTTTTTTTT MONMO3      TELAPSE       75.08 TCPU       72.71
 NUMERICALLY INTEGRATED DENSITY    319.9998798303
 TTTTTTTTTTTTTTTTTTTTTTTTTTTTTT NUMDFT      TELAPSE       75.48 TCPU       73.11
 CYC  10 ETOT(AU) -2.057750714775E+03 DETOT -1.57E-08 tst  1.06E-10 PX  2.59E-05
 TTTTTTTTTTTTTTTTTTTTTTTTTTTTTT DIIS        TELAPSE       75.52 TCPU       73.14
 DIIS TEST: 0.52574E-08 AT SCF   CYCLE  10 - DIIS ACTIVE - HISTORY:    10 CYCLES
 TTTTTTTTTTTTTTTTTTTTTTTTTTTTTT FDIK        TELAPSE       76.11 TCPU       73.73
 INSULATING STATE
 TOP OF VALENCE BANDS -    BAND    160; K   10; EIG -2.5007525E-01 AU
 TOP OF VALENCE BANDS -    BAND    160; K    1; EIG -2.5018209E-01 AU
 BOTTOM OF VIRTUAL BANDS - BAND    161; K    7; EIG -9.1584475E-03 AU
 INDIRECT ENERGY BAND GAP:   6.5557 eV
 BOTTOM OF VIRTUAL BANDS - BAND    161; K    1; EIG -5.8191446E-03 AU
 TTTTTTTTTTTTTTTTTTTTTTTTTTTTTT PDIG        TELAPSE       76.46 TCPU       74.08
 TTTTTTTTTTTTTTTTTTTTTTTTTTTTTT MOQGAD      TELAPSE       76.46 TCPU       74.08
 TTTTTTTTTTTTTTTTTTTTTTTTTTTTTT SHELLXN     TELAPSE       80.16 TCPU       77.79
 TTTTTTTTTTTTTTTTTTTTTTTTTTTTTT MONMO3      TELAPSE       81.19 TCPU       78.81
 NUMERICALLY INTEGRATED DENSITY    319.9998798301
 TTTTTTTTTTTTTTTTTTTTTTTTTTTTTT NUMDFT      TELAPSE       81.73 TCPU       79.36
 CYC  11 ETOT(AU) -2.057750714792E+03 DETOT -1.68E-08 tst  1.13E-11 PX  5.78E-06
 TTTTTTTTTTTTTTTTTTTTTTTTTTTTTT DIIS        TELAPSE       81.77 TCPU       79.39
 DIIS TEST: 0.42841E-09 AT SCF   CYCLE  11 - DIIS ACTIVE - HISTORY:    11 CYCLES
 TTTTTTTTTTTTTTTTTTTTTTTTTTTTTT FDIK        TELAPSE       82.36 TCPU       79.98
 INSULATING STATE
 TOP OF VALENCE BANDS -    BAND    160; K   10; EIG -2.5007482E-01 AU
 TOP OF VALENCE BANDS -    BAND    160; K    1; EIG -2.5018169E-01 AU
 BOTTOM OF VIRTUAL BANDS - BAND    161; K    7; EIG -9.1584470E-03 AU
 INDIRECT ENERGY BAND GAP:   6.5557 eV
 BOTTOM OF VIRTUAL BANDS - BAND    161; K    1; EIG -5.8189440E-03 AU
 TTTTTTTTTTTTTTTTTTTTTTTTTTTTTT PDIG        TELAPSE       82.71 TCPU       80.33
 TTTTTTTTTTTTTTTTTTTTTTTTTTTTTT MOQGAD      TELAPSE       82.71 TCPU       80.33
 TTTTTTTTTTTTTTTTTTTTTTTTTTTTTT SHELLXN     TELAPSE       86.42 TCPU       84.03
 TTTTTTTTTTTTTTTTTTTTTTTTTTTTTT MONMO3      TELAPSE       87.44 TCPU       85.05
 NUMERICALLY INTEGRATED DENSITY    319.9998798302
 TTTTTTTTTTTTTTTTTTTTTTTTTTTTTT NUMDFT      TELAPSE       87.98 TCPU       85.59
 CYC  12 ETOT(AU) -2.057750714789E+03 DETOT  2.55E-09 tst  9.75E-13 PX  1.56E-06
 TTTTTTTTTTTTTTTTTTTTTTTTTTTTTT DIIS        TELAPSE       88.01 TCPU       85.62
 DIIS TEST: 0.35487E-10 AT SCF   CYCLE  12 - DIIS ACTIVE - HISTORY:    12 CYCLES
 TTTTTTTTTTTTTTTTTTTTTTTTTTTTTT FDIK        TELAPSE       88.61 TCPU       86.22
 INSULATING STATE
 TOP OF VALENCE BANDS -    BAND    160; K   10; EIG -2.5007471E-01 AU
 TOP OF VALENCE BANDS -    BAND    160; K    1; EIG -2.5018158E-01 AU
 BOTTOM OF VIRTUAL BANDS - BAND    161; K    7; EIG -9.1583046E-03 AU
 INDIRECT ENERGY BAND GAP:   6.5557 eV
 BOTTOM OF VIRTUAL BANDS - BAND    161; K    1; EIG -5.8187753E-03 AU
 TTTTTTTTTTTTTTTTTTTTTTTTTTTTTT PDIG        TELAPSE       88.96 TCPU       86.58
 TTTTTTTTTTTTTTTTTTTTTTTTTTTTTT MOQGAD      TELAPSE       88.97 TCPU       86.58
 TTTTTTTTTTTTTTTTTTTTTTTTTTTTTT SHELLXN     TELAPSE       92.71 TCPU       90.28
 TTTTTTTTTTTTTTTTTTTTTTTTTTTTTT MONMO3      TELAPSE       93.73 TCPU       91.30
 NUMERICALLY INTEGRATED DENSITY    319.9998798302
 TTTTTTTTTTTTTTTTTTTTTTTTTTTTTT NUMDFT      TELAPSE       94.28 TCPU       91.84
 CYC  13 ETOT(AU) -2.057750714789E+03 DETOT  9.09E-12 tst  1.30E-13 PX  4.50E-07
 TTTTTTTTTTTTTTTTTTTTTTTTTTTTTT DIIS        TELAPSE       94.42 TCPU       91.98
 DIIS TEST: 0.19418E-11 AT SCF   CYCLE  13 - DIIS ACTIVE - HISTORY:    13 CYCLES
 TTTTTTTTTTTTTTTTTTTTTTTTTTTTTT FDIK        TELAPSE       95.01 TCPU       92.57
 INSULATING STATE
 TOP OF VALENCE BANDS -    BAND    160; K   10; EIG -2.5007467E-01 AU
[...]
Note: The following floating-point exceptions are signalling: IEEE_UNDERFLOW_FLAG IEEE_DENORMAL
Note: The following floating-point exceptions are signalling: IEEE_UNDERFLOW_FLAG IEEE_DENORMAL
Note: The following floating-point exceptions are signalling: IEEE_UNDERFLOW_FLAG IEEE_DENORMAL
Note: The following floating-point exceptions are signalling: IEEE_UNDERFLOW_FLAG IEEE_DENORMAL
Note: The following floating-point exceptions are signalling: IEEE_UNDERFLOW_FLAG IEEE_DENORMAL
Note: The following floating-point exceptions are signalling: IEEE_UNDERFLOW_FLAG IEEE_DENORMAL
Note: The following floating-point exceptions are signalling: IEEE_UNDERFLOW_FLAG IEEE_DENORMAL
Note: The following floating-point exceptions are signalling: IEEE_UNDERFLOW_FLAG IEEE_DENORMAL
Note: The following floating-point exceptions are signalling: IEEE_UNDERFLOW_FLAG IEEE_DENORMAL
Note: The following floating-point exceptions are signalling: IEEE_UNDERFLOW_FLAG IEEE_DENORMAL
Note: The following floating-point exceptions are signalling: IEEE_UNDERFLOW_FLAG IEEE_DENORMAL
Note: The following floating-point exceptions are signalling: IEEE_UNDERFLOW_FLAG IEEE_DENORMAL
Note: The following floating-point exceptions are signalling: IEEE_UNDERFLOW_FLAG IEEE_DENORMAL
Note: The following floating-point exceptions are signalling: IEEE_UNDERFLOW_FLAG IEEE_DENORMAL
Note: The following floating-point exceptions are signalling: IEEE_UNDERFLOW_FLAG IEEE_DENORMAL
Note: The following floating-point exceptions are signalling: IEEE_UNDERFLOW_FLAG IEEE_DENORMAL
Note: The following floating-point exceptions are signalling: IEEE_UNDERFLOW_FLAG IEEE_DENORMAL
Note: The following floating-point exceptions are signalling: IEEE_UNDERFLOW_FLAG IEEE_DENORMAL
Note: The following floating-point exceptions are signalling: IEEE_UNDERFLOW_FLAG IEEE_DENORMAL
Note: The following floating-point exceptions are signalling: IEEE_UNDERFLOW_FLAG IEEE_DENORMAL
Note: The following floating-point exceptions are signalling: IEEE_UNDERFLOW_FLAG IEEE_DENORMAL
Note: The following floating-point exceptions are signalling: IEEE_UNDERFLOW_FLAG IEEE_DENORMAL
Note: The following floating-point exceptions are signalling: IEEE_UNDERFLOW_FLAG IEEE_DENORMAL
Note: The following floating-point exceptions are signalling: IEEE_UNDERFLOW_FLAG IEEE_DENORMAL
Note: The following floating-point exceptions are signalling: IEEE_UNDERFLOW_FLAG IEEE_DENORMAL
Note: The following floating-point exceptions are signalling: IEEE_UNDERFLOW_FLAG IEEE_DENORMAL
Note: The following floating-point exceptions are signalling: IEEE_UNDERFLOW_FLAG IEEE_DENORMAL
Note: The following floating-point exceptions are signalling: IEEE_UNDERFLOW_FLAG IEEE_DENORMAL
Note: The following floating-point exceptions are signalling: IEEE_UNDERFLOW_FLAG IEEE_DENORMAL
Note: The following floating-point exceptions are signalling: IEEE_UNDERFLOW_FLAG IEEE_DENORMAL
Note: The following floating-point exceptions are signalling: IEEE_UNDERFLOW_FLAG IEEE_DENORMAL
Note: The following floating-point exceptions are signalling: IEEE_UNDERFLOW_FLAG IEEE_DENORMAL
Note: The following floating-point exceptions are signalling: IEEE_UNDERFLOW_FLAG IEEE_DENORMAL
Note: The following floating-point exceptions are signalling: IEEE_UNDERFLOW_FLAG IEEE_DENORMAL
Note: The following floating-point exceptions are signalling: IEEE_UNDERFLOW_FLAG IEEE_DENORMAL
Note: The following floating-point exceptions are signalling: IEEE_UNDERFLOW_FLAG IEEE_DENORMAL
Note: The following floating-point exceptions are signalling: IEEE_UNDERFLOW_FLAG IEEE_DENORMAL
Note: The following floating-point exceptions are signalling: IEEE_UNDERFLOW_FLAG IEEE_DENORMAL
Note: The following floating-point exceptions are signalling: IEEE_UNDERFLOW_FLAG IEEE_DENORMAL
Note: The following floating-point exceptions are signalling: IEEE_UNDERFLOW_FLAG IEEE_DENORMAL
Note: The following floating-point exceptions are signalling: IEEE_UNDERFLOW_FLAG IEEE_DENORMAL
Note: The following floating-point exceptions are signalling: IEEE_UNDERFLOW_FLAG IEEE_DENORMAL
Note: The following floating-point exceptions are signalling: IEEE_UNDERFLOW_FLAG IEEE_DENORMAL
Note: The following floating-point exceptions are signalling: IEEE_UNDERFLOW_FLAG IEEE_DENORMAL
Note: The following floating-point exceptions are signalling: IEEE_UNDERFLOW_FLAG IEEE_DENORMAL
Note: The following floating-point exceptions are signalling: IEEE_UNDERFLOW_FLAG IEEE_DENORMAL
Note: The following floating-point exceptions are signalling: IEEE_UNDERFLOW_FLAG IEEE_DENORMAL
Note: The following floating-point exceptions are signalling: IEEE_UNDERFLOW_FLAG IEEE_DENORMAL
Note: The following floating-point exceptions are signalling: IEEE_UNDERFLOW_FLAG IEEE_DENORMAL
Note: The following floating-point exceptions are signalling: IEEE_UNDERFLOW_FLAG IEEE_DENORMAL
Note: The following floating-point exceptions are signalling: IEEE_UNDERFLOW_FLAG IEEE_DENORMAL
Note: The following floating-point exceptions are signalling: IEEE_UNDERFLOW_FLAG IEEE_DENORMAL
Note: The following floating-point exceptions are signalling: IEEE_UNDERFLOW_FLAG IEEE_DENORMAL
Note: The following floating-point exceptions are signalling: IEEE_UNDERFLOW_FLAG IEEE_DENORMAL
Note: The following floating-point exceptions are signalling: IEEE_UNDERFLOW_FLAG IEEE_DENORMAL
Note: The following floating-point exceptions are signalling: IEEE_UNDERFLOW_FLAG IEEE_DENORMAL
Note: The following floating-point exceptions are signalling: IEEE_UNDERFLOW_FLAG IEEE_DENORMAL
Note: The following floating-point exceptions are signalling: IEEE_UNDERFLOW_FLAG IEEE_DENORMAL
Note: The following floating-point exceptions are signalling: IEEE_UNDERFLOW_FLAG IEEE_DENORMAL
Note: The following floating-point exceptions are signalling: IEEE_UNDERFLOW_FLAG IEEE_DENORMAL
Note: The following floating-point exceptions are signalling: IEEE_UNDERFLOW_FLAG IEEE_DENORMAL
Note: The following floating-point exceptions are signalling: IEEE_UNDERFLOW_FLAG IEEE_DENORMAL
Note: The following floating-point exceptions are signalling: IEEE_UNDERFLOW_FLAG IEEE_DENORMAL
Note: The following floating-point exceptions are signalling: IEEE_UNDERFLOW_FLAG IEEE_DENORMAL
Note: The following floating-point exceptions are signalling: IEEE_UNDERFLOW_FLAG IEEE_DENORMAL
Note: The following floating-point exceptions are signalling: IEEE_UNDERFLOW_FLAG IEEE_DENORMAL
Note: The following floating-point exceptions are signalling: IEEE_UNDERFLOW_FLAG IEEE_DENORMAL
Note: The following floating-point exceptions are signalling: IEEE_UNDERFLOW_FLAG IEEE_DENORMAL
Note: The following floating-point exceptions are signalling: IEEE_UNDERFLOW_FLAG IEEE_DENORMAL
Note: The following floating-point exceptions are signalling: IEEE_UNDERFLOW_FLAG IEEE_DENORMAL
Note: The following floating-point exceptions are signalling: IEEE_UNDERFLOW_FLAG IEEE_DENORMAL
Note: The following floating-point exceptions are signalling: IEEE_UNDERFLOW_FLAG IEEE_DENORMAL
Note: The following floating-point exceptions are signalling: IEEE_UNDERFLOW_FLAG IEEE_DENORMAL
Note: The following floating-point exceptions are signalling: IEEE_UNDERFLOW_FLAG IEEE_DENORMAL
Note: The following floating-point exceptions are signalling: IEEE_UNDERFLOW_FLAG IEEE_DENORMAL
Note: The following floating-point exceptions are signalling: IEEE_UNDERFLOW_FLAG IEEE_DENORMAL
Note: The following floating-point exceptions are signalling: IEEE_UNDERFLOW_FLAG IEEE_DENORMAL
Note: The following floating-point exceptions are signalling: IEEE_UNDERFLOW_FLAG IEEE_DENORMAL
Note: The following floating-point exceptions are signalling: IEEE_UNDERFLOW_FLAG IEEE_DENORMAL
Note: The following floating-point exceptions are signalling: IEEE_UNDERFLOW_FLAG IEEE_DENORMAL
Note: The following floating-point exceptions are signalling: IEEE_UNDERFLOW_FLAG IEEE_DENORMAL
Note: The following floating-point exceptions are signalling: IEEE_UNDERFLOW_FLAG IEEE_DENORMAL
Note: The following floating-point exceptions are signalling: IEEE_UNDERFLOW_FLAG IEEE_DENORMAL
Note: The following floating-point exceptions are signalling: IEEE_UNDERFLOW_FLAG IEEE_DENORMAL
Note: The following floating-point exceptions are signalling: IEEE_UNDERFLOW_FLAG IEEE_DENORMAL
Note: The following floating-point exceptions are signalling: IEEE_UNDERFLOW_FLAG IEEE_DENORMAL
Note: The following floating-point exceptions are signalling: IEEE_UNDERFLOW_FLAG IEEE_DENORMAL
Note: The following floating-point exceptions are signalling: IEEE_UNDERFLOW_FLAG IEEE_DENORMAL
Note: The following floating-point exceptions are signalling: IEEE_UNDERFLOW_FLAG IEEE_DENORMAL
Note: The following floating-point exceptions are signalling: IEEE_UNDERFLOW_FLAG IEEE_DENORMAL
Note: The following floating-point exceptions are signalling: IEEE_UNDERFLOW_FLAG IEEE_DENORMAL
Note: The following floating-point exceptions are signalling: IEEE_UNDERFLOW_FLAG IEEE_DENORMAL
Note: The following floating-point exceptions are signalling: IEEE_UNDERFLOW_FLAG IEEE_DENORMAL
Note: The following floating-point exceptions are signalling: IEEE_UNDERFLOW_FLAG IEEE_DENORMAL
Note: The following floating-point exceptions are signalling: IEEE_UNDERFLOW_FLAG IEEE_DENORMAL
Note: The following floating-point exceptions are signalling: IEEE_UNDERFLOW_FLAG IEEE_DENORMAL
Note: The following floating-point exceptions are signalling: IEEE_UNDERFLOW_FLAG IEEE_DENORMAL
Note: The following floating-point exceptions are signalling: IEEE_UNDERFLOW_FLAG IEEE_DENORMAL
Note: The following floating-point exceptions are signalling: IEEE_UNDERFLOW_FLAG IEEE_DENORMAL
Note: The following floating-point exceptions are signalling: IEEE_UNDERFLOW_FLAG IEEE_DENORMAL
Note: The following floating-point exceptions are signalling: IEEE_UNDERFLOW_FLAG IEEE_DENORMAL
Note: The following floating-point exceptions are signalling: IEEE_UNDERFLOW_FLAG IEEE_DENORMAL
Note: The following floating-point exceptions are signalling: IEEE_UNDERFLOW_FLAG IEEE_DENORMAL
Note: The following floating-point exceptions are signalling: IEEE_UNDERFLOW_FLAG IEEE_DENORMAL
Note: The following floating-point exceptions are signalling: IEEE_UNDERFLOW_FLAG IEEE_DENORMAL
Note: The following floating-point exceptions are signalling: IEEE_UNDERFLOW_FLAG IEEE_DENORMAL
Note: The following floating-point exceptions are signalling: IEEE_UNDERFLOW_FLAG IEEE_DENORMAL
Note: The following floating-point exceptions are signalling: IEEE_UNDERFLOW_FLAG IEEE_DENORMAL
Note: The following floating-point exceptions are signalling: IEEE_UNDERFLOW_FLAG IEEE_DENORMAL
Note: The following floating-point exceptions are signalling: IEEE_UNDERFLOW_FLAG IEEE_DENORMAL
Note: The following floating-point exceptions are signalling: IEEE_UNDERFLOW_FLAG IEEE_DENORMAL
Note: The following floating-point exceptions are signalling: IEEE_UNDERFLOW_FLAG IEEE_DENORMAL
Note: The following floating-point exceptions are signalling: IEEE_UNDERFLOW_FLAG IEEE_DENORMAL
Note: The following floating-point exceptions are signalling: IEEE_UNDERFLOW_FLAG IEEE_DENORMAL
Note: The following floating-point exceptions are signalling: IEEE_UNDERFLOW_FLAG IEEE_DENORMAL
Note: The following floating-point exceptions are signalling: IEEE_UNDERFLOW_FLAG IEEE_DENORMAL
Note: The following floating-point exceptions are signalling: IEEE_UNDERFLOW_FLAG IEEE_DENORMAL
Note: The following floating-point exceptions are signalling: IEEE_UNDERFLOW_FLAG IEEE_DENORMAL
Note: The following floating-point exceptions are signalling: IEEE_UNDERFLOW_FLAG IEEE_DENORMAL
Note: The following floating-point exceptions are signalling: IEEE_UNDERFLOW_FLAG IEEE_DENORMAL
Note: The following floating-point exceptions are signalling: IEEE_UNDERFLOW_FLAG IEEE_DENORMAL
Note: The following floating-point exceptions are signalling: IEEE_UNDERFLOW_FLAG IEEE_DENORMAL
Note: The following floating-point exceptions are signalling: IEEE_UNDERFLOW_FLAG IEEE_DENORMAL
Note: The following floating-point exceptions are signalling: IEEE_UNDERFLOW_FLAG IEEE_DENORMAL
Note: The following floating-point exceptions are signalling: IEEE_UNDERFLOW_FLAG IEEE_DENORMAL
Note: The following floating-point exceptions are signalling: IEEE_UNDERFLOW_FLAG IEEE_DENORMAL
Note: The following floating-point exceptions are signalling: IEEE_UNDERFLOW_FLAG IEEE_DENORMAL
Note: The following floating-point exceptions are signalling: IEEE_UNDERFLOW_FLAG IEEE_DENORMAL
Note: The following floating-point exceptions are signalling: IEEE_UNDERFLOW_FLAG IEEE_DENORMAL
Note: The following floating-point exceptions are signalling: IEEE_UNDERFLOW_FLAG IEEE_DENORMAL
Note: The following floating-point exceptions are signalling: IEEE_UNDERFLOW_FLAG IEEE_DENORMAL
Note: The following floating-point exceptions are signalling: IEEE_UNDERFLOW_FLAG IEEE_DENORMAL
Note: The following floating-point exceptions are signalling: IEEE_UNDERFLOW_FLAG IEEE_DENORMAL
Note: The following floating-point exceptions are signalling: IEEE_UNDERFLOW_FLAG IEEE_DENORMAL
Note: The following floating-point exceptions are signalling: IEEE_UNDERFLOW_FLAG IEEE_DENORMAL
Note: The following floating-point exceptions are signalling: IEEE_UNDERFLOW_FLAG IEEE_DENORMAL
Note: The following floating-point exceptions are signalling: IEEE_UNDERFLOW_FLAG IEEE_DENORMAL
Note: The following floating-point exceptions are signalling: IEEE_UNDERFLOW_FLAG IEEE_DENORMAL
Note: The following floating-point exceptions are signalling: IEEE_UNDERFLOW_FLAG IEEE_DENORMAL
Note: The following floating-point exceptions are signalling: IEEE_UNDERFLOW_FLAG IEEE_DENORMAL
Note: The following floating-point exceptions are signalling: IEEE_UNDERFLOW_FLAG IEEE_DENORMAL
Note: The following floating-point exceptions are signalling: IEEE_UNDERFLOW_FLAG IEEE_DENORMAL
Note: The following floating-point exceptions are signalling: IEEE_UNDERFLOW_FLAG IEEE_DENORMAL
Note: The following floating-point exceptions are signalling: IEEE_UNDERFLOW_FLAG IEEE_DENORMAL
Note: The following floating-point exceptions are signalling: IEEE_UNDERFLOW_FLAG IEEE_DENORMAL
Note: The following floating-point exceptions are signalling: IEEE_UNDERFLOW_FLAG IEEE_DENORMAL
Note: The following floating-point exceptions are signalling: IEEE_UNDERFLOW_FLAG IEEE_DENORMAL
Note: The following floating-point exceptions are signalling: IEEE_UNDERFLOW_FLAG IEEE_DENORMAL
Note: The following floating-point exceptions are signalling: IEEE_UNDERFLOW_FLAG IEEE_DENORMAL
Note: The following floating-point exceptions are signalling: IEEE_UNDERFLOW_FLAG IEEE_DENORMAL
Note: The following floating-point exceptions are signalling: IEEE_UNDERFLOW_FLAG IEEE_DENORMAL
Note: The following floating-point exceptions are signalling: IEEE_UNDERFLOW_FLAG IEEE_DENORMAL
Note: The following floating-point exceptions are signalling: IEEE_UNDERFLOW_FLAG IEEE_DENORMAL
Note: The following floating-point exceptions are signalling: IEEE_UNDERFLOW_FLAG IEEE_DENORMAL
Note: The following floating-point exceptions are signalling: IEEE_UNDERFLOW_FLAG IEEE_DENORMAL
Note: The following floating-point exceptions are signalling: IEEE_UNDERFLOW_FLAG IEEE_DENORMAL
Note: The following floating-point exceptions are signalling: IEEE_UNDERFLOW_FLAG IEEE_DENORMAL
Note: The following floating-point exceptions are signalling: IEEE_UNDERFLOW_FLAG IEEE_DENORMAL
Note: The following floating-point exceptions are signalling: IEEE_UNDERFLOW_FLAG IEEE_DENORMAL
Note: The following floating-point exceptions are signalling: IEEE_UNDERFLOW_FLAG IEEE_DENORMAL
Note: The following floating-point exceptions are signalling: IEEE_UNDERFLOW_FLAG IEEE_DENORMAL
Note: The following floating-point exceptions are signalling: IEEE_UNDERFLOW_FLAG IEEE_DENORMAL
Note: The following floating-point exceptions are signalling: IEEE_UNDERFLOW_FLAG IEEE_DENORMAL
Note: The following floating-point exceptions are signalling: IEEE_UNDERFLOW_FLAG IEEE_DENORMAL
Note: The following floating-point exceptions are signalling: IEEE_UNDERFLOW_FLAG IEEE_DENORMAL
Note: The following floating-point exceptions are signalling: IEEE_UNDERFLOW_FLAG IEEE_DENORMAL
Note: The following floating-point exceptions are signalling: IEEE_UNDERFLOW_FLAG IEEE_DENORMAL
Note: The following floating-point exceptions are signalling: IEEE_UNDERFLOW_FLAG IEEE_DENORMAL
Note: The following floating-point exceptions are signalling: IEEE_UNDERFLOW_FLAG IEEE_DENORMAL
Note: The following floating-point exceptions are signalling: IEEE_UNDERFLOW_FLAG IEEE_DENORMAL
Note: The following floating-point exceptions are signalling: IEEE_UNDERFLOW_FLAG IEEE_DENORMAL
Note: The following floating-point exceptions are signalling: IEEE_UNDERFLOW_FLAG IEEE_DENORMAL
Note: The following floating-point exceptions are signalling: IEEE_UNDERFLOW_FLAG IEEE_DENORMAL
Note: The following floating-point exceptions are signalling: IEEE_UNDERFLOW_FLAG IEEE_DENORMAL
Note: The following floating-point exceptions are signalling: IEEE_UNDERFLOW_FLAG IEEE_DENORMAL
Note: The following floating-point exceptions are signalling: IEEE_UNDERFLOW_FLAG IEEE_DENORMAL
Note: The following floating-point exceptions are signalling: IEEE_UNDERFLOW_FLAG IEEE_DENORMAL
Note: The following floating-point exceptions are signalling: IEEE_UNDERFLOW_FLAG IEEE_DENORMAL
Note: The following floating-point exceptions are signalling: IEEE_UNDERFLOW_FLAG IEEE_DENORMAL
Note: The following floating-point exceptions are signalling: IEEE_UNDERFLOW_FLAG IEEE_DENORMAL
Note: The following floating-point exceptions are signalling: IEEE_UNDERFLOW_FLAG IEEE_DENORMAL
Note: The following floating-point exceptions are signalling: IEEE_UNDERFLOW_FLAG IEEE_DENORMAL
Note: The following floating-point exceptions are signalling: IEEE_UNDERFLOW_FLAG IEEE_DENORMAL
Note: The following floating-point exceptions are signalling: IEEE_UNDERFLOW_FLAG IEEE_DENORMAL
Note: The following floating-point exceptions are signalling: IEEE_UNDERFLOW_FLAG IEEE_DENORMAL
Note: The following floating-point exceptions are signalling: IEEE_UNDERFLOW_FLAG IEEE_DENORMAL
Note: The following floating-point exceptions are signalling: IEEE_UNDERFLOW_FLAG IEEE_DENORMAL
Note: The following floating-point exceptions are signalling: IEEE_UNDERFLOW_FLAG IEEE_DENORMAL
Note: The following floating-point exceptions are signalling: IEEE_UNDERFLOW_FLAG IEEE_DENORMAL
Note: The following floating-point exceptions are signalling: IEEE_UNDERFLOW_FLAG IEEE_DENORMAL
Note: The following floating-point exceptions are signalling: IEEE_UNDERFLOW_FLAG IEEE_DENORMAL
Note: The following floating-point exceptions are signalling: IEEE_UNDERFLOW_FLAG IEEE_DENORMAL
Note: The following floating-point exceptions are signalling: IEEE_UNDERFLOW_FLAG IEEE_DENORMAL
Note: The following floating-point exceptions are signalling: IEEE_UNDERFLOW_FLAG IEEE_DENORMAL
Note: The following floating-point exceptions are signalling: IEEE_UNDERFLOW_FLAG IEEE_DENORMAL
Note: The following floating-point exceptions are signalling: IEEE_UNDERFLOW_FLAG IEEE_DENORMAL
Note: The following floating-point exceptions are signalling: IEEE_UNDERFLOW_FLAG IEEE_DENORMAL
Note: The following floating-point exceptions are signalling: IEEE_UNDERFLOW_FLAG IEEE_DENORMAL
Note: The following floating-point exceptions are signalling: IEEE_UNDERFLOW_FLAG IEEE_DENORMAL
Note: The following floating-point exceptions are signalling: IEEE_UNDERFLOW_FLAG IEEE_DENORMAL
Note: The following floating-point exceptions are signalling: IEEE_UNDERFLOW_FLAG IEEE_DENORMAL
Note: The following floating-point exceptions are signalling: IEEE_UNDERFLOW_FLAG IEEE_DENORMAL
Note: The following floating-point exceptions are signalling: IEEE_UNDERFLOW_FLAG IEEE_DENORMAL
Note: The following floating-point exceptions are signalling: IEEE_UNDERFLOW_FLAG IEEE_DENORMAL
Note: The following floating-point exceptions are signalling: IEEE_UNDERFLOW_FLAG IEEE_DENORMAL
Note: The following floating-point exceptions are signalling: IEEE_UNDERFLOW_FLAG IEEE_DENORMAL
Note: The following floating-point exceptions are signalling: IEEE_UNDERFLOW_FLAG IEEE_DENORMAL
Note: The following floating-point exceptions are signalling: IEEE_UNDERFLOW_FLAG IEEE_DENORMAL
