date:                Thu  9 Jun 14:58:57 BST 2022
hostname:            nhpc101
system:              Linux nhpc101 5.3.18-150300.59.63-default #1 SMP Tue Apr 5 12:47:31 UTC 2022 (d77db66) x86_64 x86_64 x86_64 GNU/Linux
user:                huanyu
input:               /home/huanyu/Desktop/dispersion/f1-disp.d12
output:              /home/huanyu/Desktop/dispersion/f1-disp.out
executable script:   
executable:          Pcrystal
module:              module load CRYSTAL/17v2-gnu
Command:             mpiexec -np 6 Pcrystal
temporary directory: /home/huanyu/Desktop/dispersion/tmp_f1-disp      
reference job:       f1-disp
input data /home/huanyu/Desktop/dispersion/f1-disp.d12
F1 HA freq - PBEh-3c
EXTERNAL
SCELPHONO
1 0 0
0 1 0
0 0 1
FREQCALC
RESTART
DISPERSI
BANDS
2 20
7
0 1 0  0 0 0
0 0 0  1 0 0
1 0 0 -1 0 1
-1 0 1  0 0 1
0 0 1  0 1 1
0 1 1  1 1 1
1 1 1  1 1 0
ENDFREQ
BASISSET
def2-mSVP
DFT
PBEH3C
XXLGRID
ENDDFT
TOLDEE
9
TOLINTEG
8 8 8 8 24
FMIXING
50
MAXCYCLE
30
SHRINK
0 4
4 4 2
ENDSCF
input data /home/huanyu/Desktop/dispersion/f1-disp.gui
File found: /home/huanyu/Desktop/dispersion/f1-disp.f9, temporarily saved as /home/huanyu/Desktop/dispersion/tmp_f1-disp/fort.20
File found: /home/huanyu/Desktop/dispersion/f1-disp.FREQINFO, temporarily saved as /home/huanyu/Desktop/dispersion/tmp_f1-disp/FREQINFO.DAT
File found: /home/huanyu/Desktop/dispersion/f1-disp.f13, temporarily saved as /home/huanyu/Desktop/dispersion/tmp_f1-disp/fort.13
 PROCESS            0  OF            6  WORKING
 PROCESS            1  OF            6  WORKING
 PROCESS            2  OF            6  WORKING
 PROCESS            3  OF            6  WORKING
 PROCESS            5  OF            6  WORKING
 PROCESS            4  OF            6  WORKING

         
 *******************************************************************************
 *                                                                             *
 *                               CRYSTAL17                                     *
 *                      public : 1.0.2 - March 1st, 2018                       *
 *                       HTTP://WWW.CRYSTAL.UNITO.IT                           *
 *                                                                             *
 *                              MAIN AUTHORS                                   *
 *                                                                             *
 *  R. DOVESI(1,11), V.R. SAUNDERS(2), C. ROETTI(1,11), R. ORLANDO(1,11),      *
 *  C.M. ZICOVICH-WILSON(1,3), F. PASCALE(4), B. CIVALLERI(1,11),              *
 *  K. DOLL(5), N.M. HARRISON(2,6), I.J. BUSH(7), Ph. D'ARCO(8),               *
 *  M. LLUNELL(9), M. CAUSA'(10), Y. NOEL(8), L. MASCHIO(1,11), A. ERBA(1,11)  *
 *  M. RE'RAT(14), S. CASASSA(1,11)                                            *
 *                                                                             *
 *        CONTRIBUTIONS TO THE CODE HAVE ALSO BEEN GIVEN BY                    *
 *                                                                             *
 *  M. FERRABONE(1,11), M. DE LA PIERRE(1,11), M. FERRERO(1,11),               *
 *  J. BAIMA(1,11), E. ALBANESE(1,11), M.F. PEINTINGER(12), R. BAST(13),       *
 *  B. KIRTMAN(15), V. LACIVITA(1,11), R. DEMICHELIS(1,16)                     *
 *  G. BRANDEBURG(17), S. SALUSTRO(1,11), G. SANSONE(1,11)                     *
 *  M.T. RUGGIERO(18)                                                          *
 *                                                                             *
 * (1) THEORETICAL CHEMISTRY GROUP - UNIVERSITA' DI TORINO - TORINO (ITALY)    *
 * (2) COMPUTATIONAL SCIENCE & ENGINEERING DEPARTMENT - STFC DARESBURY (UK)    *
 * (3) UNIVERSIDAD AUTONOMA DEL ESTADO DE MORELOS - CUERNAVACA (MEXICO)        *
 * (4) UNIVERSITE' DE LORRAINE - NANCY (FRANCE)                                *
 * (5) UNIVERSITAET STUTTGART- STUTTGART (GERMANY)                             *
 * (6) IMPERIAL COLLEGE - LONDON (UK)                                          *
 * (7) OXFORD E-RESEARCH CENTRE - OXFORD (UK)                                  *
 * (8) UPMC - SORBONNE UNIVERSITES - PARIS (FRANCE)                            *
 * (9) UNIVERSIDAD DE BARCELONA - BARCELONA (SPAIN)                            *
 *(10) UNIVERSITA' DI NAPOLI "FEDERICO II" - NAPOLI (ITALY)                    *
 *(11) NIS - NANOSTRUCTURED INTERFACES AND SURFACES - TORINO (ITALY)           *
 *(12) MPI FUER CHEMISCHE ENERGIEKONVERSION - MUELHEIM AN DER RUHR (GERMANY)   *
 *(13) UNIVERSITY OF TROMSO - TROMSO (NORWAY)                                  *
 *(14) UNIVERSITE' DE PAU ET DES PAYS DE L'ADOUR - PAU (FRANCE)                *
 *(15) UNIVERSITY OF CALIFORNIA SANTA BARBARA - SANTA BARBARA (USA)            *
 *(16) CURTIN UNIVERSITY - PERTH (AUSTRALIA)                                   *
 *(17) UNIVERSITY COLLEGE LONDON - LONDON (UK)                                 *
 *(18) CAMBRIDGE UNIVERSITY - CAMBRIDGE (UK)                                   *
 *                                                                             *
 *******************************************************************************
 EEEEEEEEEE STARTING  DATE 09 06 2022 TIME 14:58:57.6
 F1 HA freq - PBEh-3c                                                            

 GEOMETRY INPUT FROM EXTERNAL FILE (FORTRAN UNIT 34)
 3D - CRYSTAL 

 *******************************************************************************
 LATTICE PARAMETERS  (ANGSTROMS AND DEGREES) - PRIMITIVE CELL
       A          B          C        ALPHA      BETA     GAMMA        VOLUME
    7.16300    9.27618   12.67048    90.00000 116.36971  90.00000    754.292434

 NUMBER OF IRREDUCIBLE ATOMS IN THE CELL:   20

 CARTESIAN COORDINATES (ANGSTROM) - IRREDUCIBLE ATOMS AND SYMMETRY RELATED

 AT.IRR.  AT  AT.N.          X                   Y                   Z
     1     1     8    1.999102137637E+00  3.994241344426E+00 -3.263652722402E+00
     1     2     8    7.895505583340E-01 -6.438503772450E-01 -2.424817038955E+00
     1     3     8   -1.999102137637E+00 -3.994241344426E+00  3.263652722402E+00
     1     4     8   -7.895505583340E-01  6.438503772550E-01  2.424817038915E+00
     5     5     8    1.564099903085E+00 -1.752738643500E-02  3.427923611666E+00
     5     6     8    2.810179828728E+00  4.620564335245E+00  2.228757563479E+00
     5     7     8   -1.564099903085E+00  1.752738643500E-02 -3.427923611666E+00
     5     8     8   -2.810179828728E+00 -4.620564335235E+00 -2.228757563519E+00
     9     9     7   -3.416011330835E+00  4.020110668620E-01  3.877294384449E+00
     9    10     7    6.273586348640E-01 -4.236080654808E+00  1.811175376868E+00
     9    11     7    3.416011330835E+00 -4.020110668620E-01 -3.877294384449E+00
     9    12     7   -6.273586348640E-01  4.236080654818E+00 -1.811175376908E+00
    13    13     6   -3.506084388713E+00  1.281217093700E+00  4.971051943134E+00
    13    14     6    7.174316927420E-01 -3.356874627970E+00  7.174178181830E-01
    13    15     6    3.506084388713E+00 -1.281217093700E+00 -4.971051943134E+00
    13    16     6   -7.174316927420E-01  3.356874627980E+00 -7.174178182230E-01
    17    17     6    1.004887210173E+00  1.318731581879E+00 -5.513988309534E+00
    17    18     6    1.783765485798E+00 -3.319360139791E+00 -1.744814518230E-01
    17    19     6   -1.004887210173E+00 -1.318731581879E+00  5.513988309534E+00
    17    20     6   -1.783765485798E+00  3.319360139801E+00  1.744814517830E-01
    21    21     6    1.001228756752E+00  2.227680579240E+00 -4.466345461147E+00
    21    22     6    1.787423939218E+00 -2.410411142430E+00 -1.222124300210E+00
    21    23     6   -1.001228756752E+00 -2.227680579240E+00  4.466345461147E+00
    21    24     6   -1.787423939219E+00  2.410411142440E+00  1.222124300170E+00
    25    25     6    2.062372590425E+00  3.107824184571E+00 -4.277474071500E+00
    25    26     6    7.262801055450E-01 -1.530267537099E+00 -1.410995689857E+00
    25    27     6   -2.062372590425E+00 -3.107824184571E+00  4.277474071500E+00
    25    28     6   -7.262801055450E-01  1.530267537109E+00  1.410995689817E+00
    29    29     6    3.143232573865E+00  3.047739961011E+00 -5.152514952000E+00
    29    30     6   -3.545798778940E-01 -1.590351760660E+00 -5.359548093570E-01
    29    31     6   -3.143232573865E+00 -3.047739961011E+00  5.152514952000E+00
    29    32     6    3.545798778940E-01  1.590351760670E+00  5.359548093170E-01
    33    33     6   -2.436463559744E+00  2.148002991589E+00  5.174991950825E+00
    33    34     6   -3.521891362270E-01 -2.490088730082E+00  5.134778104920E-01
    33    35     6    2.436463559744E+00 -2.148002991589E+00 -5.174991950825E+00
    33    36     6    3.521891362270E-01  2.490088730092E+00 -5.134778105320E-01
    37    37     6    2.754691483484E+00 -1.590059330070E-01  3.142542025822E+00
    37    38     6    1.619588248329E+00  4.479085788674E+00  2.514139149324E+00
    37    39     6   -2.754691483484E+00  1.590059330070E-01 -3.142542025822E+00
    37    40     6   -1.619588248329E+00 -4.479085788664E+00 -2.514139149364E+00
    41    41     6    3.190623037785E+00 -9.920045417870E-01  1.970721542216E+00
    41    42     6    1.183656694028E+00  3.646087179893E+00  3.685959632930E+00
    41    43     6   -3.190623037785E+00  9.920045417870E-01 -1.970721542216E+00
    41    44     6   -1.183656694028E+00 -3.646087179883E+00 -3.685959632970E+00
    45    45     1    1.688104963200E-01  6.471316975490E-01 -5.616522098166E+00
    45    46     1    2.619842199650E+00 -3.990960024121E+00 -7.194766319100E-02
    45    47     1   -1.688104963200E-01 -6.471316975490E-01  5.616522098166E+00
    45    48     1   -2.619842199650E+00  3.990960024131E+00  7.194766315100E-02
    49    49     1    1.582596542900E-01  2.238793100651E+00 -3.786881814131E+00
    49    50     1    2.630393041680E+00 -2.399298621020E+00 -1.901587947225E+00
    49    51     1   -1.582596542900E-01 -2.238793100651E+00  3.786881814131E+00
    49    52     1   -2.630393041680E+00  2.399298621030E+00  1.901587947185E+00
    53    53     1   -3.178851562363E+00  3.717879754805E+00 -5.001691366040E+00
    53    54     1   -1.195428169450E+00 -9.202119668650E-01 -6.549898091460E-01
    53    55     1    3.178851562363E+00 -3.717879754805E+00  5.001691366040E+00
    53    56     1    1.195428169450E+00  9.202119668750E-01  6.549898091060E-01
    57    57     1   -1.586307027256E+00  2.119746283857E+00  4.505367258857E+00
    57    58     1   -1.202345668714E+00 -2.518345437813E+00  1.183102502460E+00
    57    59     1    1.586307027256E+00 -2.119746283857E+00 -4.505367258857E+00
    57    60     1    1.202345668714E+00  2.518345437823E+00 -1.183102502500E+00
    61    61     1    2.882270819698E+00  4.358099219864E+00 -3.026146322896E+00
    61    62     1   -9.361812372700E-02 -2.799925018060E-01 -2.662323438461E+00
    61    63     1   -2.882270819698E+00 -4.358099219864E+00  3.026146322896E+00
    61    64     1    9.361812372700E-02  2.799925018160E-01  2.662323438421E+00
    65    65     1   -2.477738726417E+00  2.615791195490E-01  3.520884507008E+00
    65    66     1   -3.109139695540E-01 -4.376512602121E+00  2.167585254309E+00
    65    67     1    2.477738726417E+00 -2.615791195490E-01 -3.520884507008E+00
    65    68     1    3.109139695540E-01  4.376512602131E+00 -2.167585254349E+00
    69    69     1    2.556755741939E+00 -7.910405166230E-01  1.108492114205E+00
    69    70     1    1.817523989874E+00  3.847051205057E+00  4.548189060941E+00
    69    71     1   -2.556755741939E+00  7.910405166230E-01 -1.108492114205E+00
    69    72     1   -1.817523989874E+00 -3.847051205047E+00 -4.548189060981E+00
    73    73     1   -2.932607495924E+00 -8.316567725920E-01  1.724838691827E+00
    73    74     1    1.439547999530E-01  3.806434949088E+00  3.963631069490E+00
    73    75     1    2.932607495924E+00  8.316567725920E-01 -1.724838691827E+00
    73    76     1   -1.439547999530E-01 -3.806434949078E+00 -3.963631069530E+00
    77    77     1    3.061791680880E+00 -2.048163691236E+00  2.203356784841E+00
    77    78     1    1.312488050933E+00  2.589928030444E+00  3.453324390305E+00
    77    79     1   -3.061791680880E+00  2.048163691236E+00 -2.203356784841E+00
    77    80     1   -1.312488050933E+00 -2.589928030434E+00 -3.453324390345E+00

 SPACE  GROUP  N.                     :   14
 NUMBER OF SYMMETRY OPERATORS         :    4
 *******************************************************************************
 LATTICE PARAMETERS (ANGSTROMS AND DEGREES) - BOHR = 0.5291772083 ANGSTROM
 PRIMITIVE CELL - CENTRING CODE 1/0 VOLUME=   754.292434 - DENSITY  1.330 g/cm^3
         A              B              C           ALPHA      BETA       GAMMA 
     7.16300297     9.27618344    12.67048098    90.000000 116.369705  90.000000
 *******************************************************************************
 ATOMS IN THE ASYMMETRIC UNIT   20 - ATOMS IN THE UNIT CELL:   80
     ATOM                 X/A                 Y/B                 Z/C    
 *******************************************************************************
      1 T   8 O     5.584798304301E-02  4.305910258048E-01 -2.867095660896E-01
      2 F   8 O    -5.584798304335E-02 -6.940897419472E-02 -2.132904339111E-01
      3 F   8 O    -5.584798304301E-02 -4.305910258048E-01  2.867095660896E-01
      4 F   8 O     5.584798304061E-02  6.940897419580E-02  2.132904339075E-01
      5 T   8 O     4.539539759625E-01 -1.889504076977E-03  3.025729511773E-01
      6 F   8 O    -4.539539759644E-01  4.981104959236E-01  1.974270488198E-01
      7 F   8 O    -4.539539759625E-01  1.889504076977E-03 -3.025729511773E-01
      8 F   8 O     4.539539759616E-01 -4.981104959225E-01 -1.974270488233E-01
      9 T   7 N    -2.120015878266E-01  4.333798154350E-02  3.402105764897E-01
     10 F   7 N     2.120015878242E-01 -4.566620184560E-01  1.597894235074E-01
     11 F   7 N     2.120015878266E-01 -4.333798154350E-02 -3.402105764897E-01
     12 F   7 N    -2.120015878270E-01  4.566620184570E-01 -1.597894235109E-01
     13 T   6 C    -1.495842350046E-01  1.381189905875E-01  4.365230967327E-01
     14 F   6 C     1.495842350022E-01 -3.618810094120E-01  6.347690326439E-02
     15 F   6 C     1.495842350046E-01 -1.381189905875E-01 -4.365230967327E-01
     16 F   6 C    -1.495842350050E-01  3.618810094130E-01 -6.347690326791E-02
     17 T   6 C    -2.376027369036E-01  1.421631633239E-01 -4.853274778857E-01
     18 F   6 C     2.376027369032E-01 -3.578368366756E-01 -1.467252211488E-02
     19 F   6 C     2.376027369036E-01 -1.421631633239E-01  4.853274778857E-01
     20 F   6 C    -2.376027369060E-01  3.578368366767E-01  1.467252211135E-02
     21 T   6 C    -1.662579006697E-01  2.401505525246E-01 -3.930433624814E-01
     22 F   6 C     1.662579006692E-01 -2.598494474749E-01 -1.069566375193E-01
     23 F   6 C     1.662579006697E-01 -2.401505525246E-01  3.930433624814E-01
     24 F   6 C    -1.662579006721E-01  2.598494474759E-01  1.069566375157E-01
     25 T   6 C    -4.836637630869E-03  3.350326353021E-01 -3.759910837917E-01
     26 F   6 C     4.836637630389E-03 -1.649673646974E-01 -1.240089162090E-01
     27 F   6 C     4.836637630869E-03 -3.350326353021E-01  3.759910837917E-01
     28 F   6 C    -4.836637633132E-03  1.649673646985E-01  1.240089162054E-01
     29 T   6 C     8.637055174037E-02  3.285553783648E-01 -4.526497960192E-01
     30 F   6 C    -8.637055174071E-02 -1.714446216348E-01 -4.735020398138E-02
     31 F   6 C    -8.637055174037E-02 -3.285553783648E-01  4.526497960192E-01
     32 F   6 C     8.637055173797E-02  1.714446216359E-01  4.735020397786E-02
     33 T   6 C     1.405660189796E-02  2.315610730110E-01  4.549060650274E-01
     34 F   6 C    -1.405660190036E-02 -2.684389269886E-01  4.509393496973E-02
     35 F   6 C    -1.405660189796E-02 -2.315610730110E-01 -4.549060650274E-01
     36 F   6 C     1.405660189762E-02  2.684389269896E-01 -4.509393497326E-02
     37 T   6 C    -3.990419675309E-01 -1.714130967526E-02  2.778994848056E-01
     38 F   6 C     3.990419675291E-01  4.828586903254E-01  2.221005151915E-01
     39 F   6 C     3.990419675309E-01  1.714130967526E-02 -2.778994848056E-01
     40 F   6 C    -3.990419675319E-01 -4.828586903243E-01 -2.221005151951E-01
     41 T   6 C    -4.184238116732E-01 -1.069410224415E-01  1.748457063540E-01
     42 F   6 C     4.184238116713E-01  3.930589775590E-01  3.251542936431E-01
     43 F   6 C     4.184238116732E-01  1.069410224415E-01 -1.748457063540E-01
     44 F   6 C    -4.184238116741E-01 -3.930589775579E-01 -3.251542936466E-01
     45 T   1 H    -3.616126012459E-01  6.976271022464E-02 -4.946863996483E-01
     46 F   1 H     3.616126012454E-01 -4.302372897748E-01 -5.313600352283E-03
     47 F   1 H     3.616126012459E-01 -6.976271022464E-02  4.946863996483E-01
     48 F   1 H    -3.616126012481E-01  4.302372897759E-01  5.313600348759E-03
     49 T   1 H    -2.375957287494E-01  2.413485151866E-01 -3.335198045887E-01
     50 F   1 H     2.375957287490E-01 -2.586514848130E-01 -1.664801954118E-01
     51 F   1 H     2.375957287494E-01 -2.413485151866E-01  3.335198045887E-01
     52 F   1 H    -2.375957287518E-01  2.586514848141E-01  1.664801954083E-01
     53 T   1 H     2.121798175087E-01  4.007984293875E-01 -4.418354378846E-01
     54 F   1 H    -2.121798175096E-01 -9.920157061196E-02 -5.816456211606E-02
     55 F   1 H    -2.121798175087E-01 -4.007984293875E-01  4.418354378846E-01
     56 F   1 H     2.121798175068E-01  9.920157061304E-02  5.816456211253E-02
     57 T   1 H     8.707488119122E-02  2.285149163772E-01  3.962520181483E-01
     58 F   1 H    -8.707488119348E-02 -2.714850836222E-01  1.037479818488E-01
     59 F   1 H    -8.707488119122E-02 -2.285149163772E-01 -3.962520181483E-01
     60 F   1 H     8.707488119074E-02  2.714850836233E-01 -1.037479818523E-01
     61 T   1 H     1.957042062067E-01  4.698159805139E-01 -2.654426664436E-01
     62 F   1 H    -1.957042062071E-01 -3.018401948559E-02 -2.345573335570E-01
     63 F   1 H    -1.957042062067E-01 -4.698159805139E-01  2.654426664436E-01
     64 F   1 H     1.957042062043E-01  3.018401948667E-02  2.345573335535E-01
     65 T   1 H    -1.051717431690E-01  2.819900243958E-02  3.091816774598E-01
     66 F   1 H     1.051717431666E-01 -4.718009975599E-01  1.908183225373E-01
     67 F   1 H     1.051717431690E-01 -2.819900243958E-02 -3.091816774598E-01
     68 F   1 H    -1.051717431693E-01  4.718009975610E-01 -1.908183225408E-01
     69 T   1 H     4.337511440972E-01 -8.527650638368E-02  9.864519782203E-02
     70 F   1 H    -4.337511440991E-01  4.147234936169E-01  4.013548021751E-01
     71 F   1 H    -4.337511440972E-01  8.527650638368E-02 -9.864519782203E-02
     72 F   1 H     4.337511440963E-01 -4.147234936158E-01 -4.013548021786E-01
     73 T   1 H    -2.920022051166E-01 -8.965505885809E-02  1.507924298221E-01
     74 F   1 H     2.920022051142E-01  4.103449411424E-01  3.492075701750E-01
     75 F   1 H     2.920022051166E-01  8.965505885809E-02 -1.507924298221E-01
     76 F   1 H    -2.920022051170E-01 -4.103449411414E-01 -3.492075701785E-01
     77 T   1 H    -4.204926656049E-01 -2.207981012605E-01  1.952878890886E-01
     78 F   1 H     4.204926656031E-01  2.792018987400E-01  3.047121109085E-01
     79 F   1 H     4.204926656049E-01  2.207981012605E-01 -1.952878890886E-01
     80 F   1 H    -4.204926656059E-01 -2.792018987389E-01 -3.047121109120E-01

 T = ATOM BELONGING TO THE ASYMMETRIC UNIT
 *******************************************************************************
 * GEOMETRY EDITING - INPUT COORDINATES ARE GIVEN IN ANGSTROM         
 *******************************************************************************

 GEOMETRY NOW FULLY CONSISTENT WITH THE GROUP

 REMOVAL OF SYMMOPS WITH FINITE TRANSLATIONAL COMPONENTS
 HAS REDUCED THEIR NUMBER FROM  4 TO  2

 GCALCO - MAX INDICES DIRECT LATTICE VECTOR    20    14    11
 NO.OF VECTORS CREATED 6999 STARS 1868 RMAX   107.94161 BOHR

 *******************************************************************************
 * SUPERCELL OPTION
 *******************************************************************************


        EXPANSION MATRIX OF PRIMITIVE CELL
 E1     1.000     0.000     0.000
 E2     0.000     1.000     0.000
 E3     0.000     0.000     1.000

 NUMBER OF ATOMS PER SUPERCELL    80

        DIRECT LATTICE VECTORS COMPONENTS (ANGSTROM)
 B1     7.163     0.000    -0.032
 B2     0.000     9.276    -0.000
 B3    -5.577     0.000    11.377

 LATTICE PARAMETERS  (ANGSTROM AND DEGREES)
       A          B          C         ALPHA     BETA     GAMMA        VOLUME
    7.16300    9.27618   12.67048    90.00000 116.36971  90.00000    754.292434


 **** ATOMS BELONGING TO THE SUPERCELL
 LABEL AT.NO.      COORDINATES (ANGSTROM AND FRACTIONAL)
     1     8     1.9991     3.9942    -3.2637     0.0558     0.4306    -0.2867
     2     8     0.7896    -0.6439    -2.4248    -0.0558    -0.0694    -0.2133
     3     8    -1.9991    -3.9942     3.2637    -0.0558    -0.4306     0.2867
     4     8    -0.7896     0.6439     2.4248     0.0558     0.0694     0.2133
     5     8     1.5641    -0.0175     3.4279     0.4540    -0.0019     0.3026
     6     8    -4.3528     4.6206     2.2605    -0.4540     0.4981     0.1974
     7     8    -1.5641     0.0175    -3.4279    -0.4540     0.0019    -0.3026
     8     8     4.3528    -4.6206    -2.2605     0.4540    -0.4981    -0.1974
     9     7    -3.4160     0.4020     3.8773    -0.2120     0.0433     0.3402
    10     7     0.6274    -4.2361     1.8112     0.2120    -0.4567     0.1598
    11     7     3.4160    -0.4020    -3.8773     0.2120    -0.0433    -0.3402
    12     7    -0.6274     4.2361    -1.8112    -0.2120     0.4567    -0.1598
    13     6    -3.5061     1.2812     4.9711    -0.1496     0.1381     0.4365
    14     6     0.7174    -3.3569     0.7174     0.1496    -0.3619     0.0635
    15     6     3.5061    -1.2812    -4.9711     0.1496    -0.1381    -0.4365
    16     6    -0.7174     3.3569    -0.7174    -0.1496     0.3619    -0.0635
    17     6     1.0049     1.3187    -5.5140    -0.2376     0.1422    -0.4853
    18     6     1.7838    -3.3194    -0.1745     0.2376    -0.3578    -0.0147
    19     6    -1.0049    -1.3187     5.5140     0.2376    -0.1422     0.4853
    20     6    -1.7838     3.3194     0.1745    -0.2376     0.3578     0.0147
    21     6     1.0012     2.2277    -4.4663    -0.1663     0.2402    -0.3930
    22     6     1.7874    -2.4104    -1.2221     0.1663    -0.2598    -0.1070
    23     6    -1.0012    -2.2277     4.4663     0.1663    -0.2402     0.3930
    24     6    -1.7874     2.4104     1.2221    -0.1663     0.2598     0.1070
    25     6     2.0624     3.1078    -4.2775    -0.0048     0.3350    -0.3760
    26     6     0.7263    -1.5303    -1.4110     0.0048    -0.1650    -0.1240
    27     6    -2.0624    -3.1078     4.2775     0.0048    -0.3350     0.3760
    28     6    -0.7263     1.5303     1.4110    -0.0048     0.1650     0.1240
    29     6     3.1432     3.0477    -5.1525     0.0864     0.3286    -0.4526
    30     6    -0.3546    -1.5904    -0.5360    -0.0864    -0.1714    -0.0474
    31     6    -3.1432    -3.0477     5.1525    -0.0864    -0.3286     0.4526
    32     6     0.3546     1.5904     0.5360     0.0864     0.1714     0.0474
    33     6    -2.4365     2.1480     5.1750     0.0141     0.2316     0.4549
    34     6    -0.3522    -2.4901     0.5135    -0.0141    -0.2684     0.0451
    35     6     2.4365    -2.1480    -5.1750    -0.0141    -0.2316    -0.4549
    36     6     0.3522     2.4901    -0.5135     0.0141     0.2684    -0.0451
    37     6    -4.4082    -0.1590     3.1743    -0.3990    -0.0171     0.2779
    38     6     1.6196     4.4791     2.5141     0.3990     0.4829     0.2221
    39     6     4.4082     0.1590    -3.1743     0.3990     0.0171    -0.2779
    40     6    -1.6196    -4.4791    -2.5141    -0.3990    -0.4829    -0.2221
    41     6    -3.9723    -0.9920     2.0025    -0.4184    -0.1069     0.1748
    42     6     1.1837     3.6461     3.6860     0.4184     0.3931     0.3252
    43     6     3.9723     0.9920    -2.0025     0.4184     0.1069    -0.1748
    44     6    -1.1837    -3.6461    -3.6860    -0.4184    -0.3931    -0.3252
    45     1     0.1688     0.6471    -5.6165    -0.3616     0.0698    -0.4947
    46     1     2.6198    -3.9910    -0.0719     0.3616    -0.4302    -0.0053
    47     1    -0.1688    -0.6471     5.6165     0.3616    -0.0698     0.4947
    48     1    -2.6198     3.9910     0.0719    -0.3616     0.4302     0.0053
    49     1     0.1583     2.2388    -3.7869    -0.2376     0.2413    -0.3335
    50     1     2.6304    -2.3993    -1.9016     0.2376    -0.2587    -0.1665
    51     1    -0.1583    -2.2388     3.7869     0.2376    -0.2413     0.3335
    52     1    -2.6304     2.3993     1.9016    -0.2376     0.2587     0.1665
    53     1     3.9841     3.7179    -5.0335     0.2122     0.4008    -0.4418
    54     1    -1.1954    -0.9202    -0.6550    -0.2122    -0.0992    -0.0582
    55     1    -3.9841    -3.7179     5.0335    -0.2122    -0.4008     0.4418
    56     1     1.1954     0.9202     0.6550     0.2122     0.0992     0.0582
    57     1    -1.5863     2.1197     4.5054     0.0871     0.2285     0.3963
    58     1    -1.2023    -2.5183     1.1831    -0.0871    -0.2715     0.1037
    59     1     1.5863    -2.1197    -4.5054    -0.0871    -0.2285    -0.3963
    60     1     1.2023     2.5183    -1.1831     0.0871     0.2715    -0.1037
    61     1     2.8823     4.3581    -3.0261     0.1957     0.4698    -0.2654
    62     1    -0.0936    -0.2800    -2.6623    -0.1957    -0.0302    -0.2346
    63     1    -2.8823    -4.3581     3.0261    -0.1957    -0.4698     0.2654
    64     1     0.0936     0.2800     2.6623     0.1957     0.0302     0.2346
    65     1    -2.4777     0.2616     3.5209    -0.1052     0.0282     0.3092
    66     1    -0.3109    -4.3765     2.1676     0.1052    -0.4718     0.1908
    67     1     2.4777    -0.2616    -3.5209     0.1052    -0.0282    -0.3092
    68     1     0.3109     4.3765    -2.1676    -0.1052     0.4718    -0.1908
    69     1     2.5568    -0.7910     1.1085     0.4338    -0.0853     0.0986
    70     1    -5.3454     3.8471     4.5800    -0.4338     0.4147     0.4014
    71     1    -2.5568     0.7910    -1.1085    -0.4338     0.0853    -0.0986
    72     1     5.3454    -3.8471    -4.5800     0.4338    -0.4147    -0.4014
    73     1    -2.9326    -0.8317     1.7248    -0.2920    -0.0897     0.1508
    74     1     0.1440     3.8064     3.9636     0.2920     0.4103     0.3492
    75     1     2.9326     0.8317    -1.7248     0.2920     0.0897    -0.1508
    76     1    -0.1440    -3.8064    -3.9636    -0.2920    -0.4103    -0.3492
    77     1    -4.1011    -2.0482     2.2351    -0.4205    -0.2208     0.1953
    78     1     1.3125     2.5899     3.4533     0.4205     0.2792     0.3047
    79     1     4.1011     2.0482    -2.2351     0.4205     0.2208    -0.1953
    80     1    -1.3125    -2.5899    -3.4533    -0.4205    -0.2792    -0.3047

 **************************** SUPERCELL GENERATED ****************************

 **** ATOMS IN THE SUPERCELL REORDERED FOR PHONON CALCULATION
      ATOMS IN THE SMALL CELL ON TOP

 LABEL AT.NO.      COORDINATES (ANGSTROM)
     1     8     1.9991     3.9942    -3.2637
     2     8     0.7896    -0.6439    -2.4248
     3     8    -1.9991    -3.9942     3.2637
     4     8    -0.7896     0.6439     2.4248
     5     8     1.5641    -0.0175     3.4279
     6     8    -4.3528     4.6206     2.2605
     7     8    -1.5641     0.0175    -3.4279
     8     8     4.3528    -4.6206    -2.2605
     9     7    -3.4160     0.4020     3.8773
    10     7     0.6274    -4.2361     1.8112
    11     7     3.4160    -0.4020    -3.8773
    12     7    -0.6274     4.2361    -1.8112
    13     6    -3.5061     1.2812     4.9711
    14     6     0.7174    -3.3569     0.7174
    15     6     3.5061    -1.2812    -4.9711
    16     6    -0.7174     3.3569    -0.7174
    17     6     1.0049     1.3187    -5.5140
    18     6     1.7838    -3.3194    -0.1745
    19     6    -1.0049    -1.3187     5.5140
    20     6    -1.7838     3.3194     0.1745
    21     6     1.0012     2.2277    -4.4663
    22     6     1.7874    -2.4104    -1.2221
    23     6    -1.0012    -2.2277     4.4663
    24     6    -1.7874     2.4104     1.2221
    25     6     2.0624     3.1078    -4.2775
    26     6     0.7263    -1.5303    -1.4110
    27     6    -2.0624    -3.1078     4.2775
    28     6    -0.7263     1.5303     1.4110
    29     6     3.1432     3.0477    -5.1525
    30     6    -0.3546    -1.5904    -0.5360
    31     6    -3.1432    -3.0477     5.1525
    32     6     0.3546     1.5904     0.5360
    33     6    -2.4365     2.1480     5.1750
    34     6    -0.3522    -2.4901     0.5135
    35     6     2.4365    -2.1480    -5.1750
    36     6     0.3522     2.4901    -0.5135
    37     6    -4.4082    -0.1590     3.1743
    38     6     1.6196     4.4791     2.5141
    39     6     4.4082     0.1590    -3.1743
    40     6    -1.6196    -4.4791    -2.5141
    41     6    -3.9723    -0.9920     2.0025
    42     6     1.1837     3.6461     3.6860
    43     6     3.9723     0.9920    -2.0025
    44     6    -1.1837    -3.6461    -3.6860
    45     1     0.1688     0.6471    -5.6165
    46     1     2.6198    -3.9910    -0.0719
    47     1    -0.1688    -0.6471     5.6165
    48     1    -2.6198     3.9910     0.0719
    49     1     0.1583     2.2388    -3.7869
    50     1     2.6304    -2.3993    -1.9016
    51     1    -0.1583    -2.2388     3.7869
    52     1    -2.6304     2.3993     1.9016
    53     1     3.9841     3.7179    -5.0335
    54     1    -1.1954    -0.9202    -0.6550
    55     1    -3.9841    -3.7179     5.0335
    56     1     1.1954     0.9202     0.6550
    57     1    -1.5863     2.1197     4.5054
    58     1    -1.2023    -2.5183     1.1831
    59     1     1.5863    -2.1197    -4.5054
    60     1     1.2023     2.5183    -1.1831
    61     1     2.8823     4.3581    -3.0261
    62     1    -0.0936    -0.2800    -2.6623
    63     1    -2.8823    -4.3581     3.0261
    64     1     0.0936     0.2800     2.6623
    65     1    -2.4777     0.2616     3.5209
    66     1    -0.3109    -4.3765     2.1676
    67     1     2.4777    -0.2616    -3.5209
    68     1     0.3109     4.3765    -2.1676
    69     1     2.5568    -0.7910     1.1085
    70     1    -5.3454     3.8471     4.5800
    71     1    -2.5568     0.7910    -1.1085
    72     1     5.3454    -3.8471    -4.5800
    73     1    -2.9326    -0.8317     1.7248
    74     1     0.1440     3.8064     3.9636
    75     1     2.9326     0.8317    -1.7248
    76     1    -0.1440    -3.8064    -3.9636
    77     1    -4.1011    -2.0482     2.2351
    78     1     1.3125     2.5899     3.4533
    79     1     4.1011     2.0482    -2.2351
    80     1    -1.3125    -2.5899    -3.4533

 FRQFRQFRQFRQFRQFRQFRQFRQFRQFRQFRQFRQFRQFRQFRQFRQFRQFRQFRQFRQFRQFRQFRQFRQFRQFRQ

                       FREQUENCY CALCULATION

 INFORMATION **** INPFREQ **** FREQUENCY CALCULATION RESTART(DATA FROM FREQINFO.DAT)
 INFORMATION **** INPFREQ **** PHONON DISPERSION CALCULATION
 INFORMATION **** INPFREQ **** BANDS: MODES PRINTING DISABLED. USE KEYWORD MODES TO ENABLE.
 INFORMATION **** INPFREQ **** NEW DEFAULT - IMPOSING ECKART CONDITIONS TO THE HESSIAN

 GCALCO - MAX INDICES DIRECT LATTICE VECTOR    20    14    11
 NO.OF VECTORS CREATED 6999 STARS 1868 RMAX   203.98008 BOHR

 GEOMETRY FOR WAVE FUNCTION - DIMENSIONALITY OF THE SYSTEM    3
 (NON PERIODIC DIRECTION: LATTICE PARAMETER FORMALLY SET TO 500)
 *******************************************************************************
 LATTICE PARAMETERS (ANGSTROMS AND DEGREES) - BOHR = 0.5291772083 ANGSTROM
 PRIMITIVE CELL - CENTRING CODE 1/1 VOLUME=   754.292434 - DENSITY  1.330 g/cm^3
         A              B              C           ALPHA      BETA       GAMMA 
     7.16300297     9.27618344    12.67048098    90.000000 116.369705  90.000000
 *******************************************************************************
 ATOMS IN THE ASYMMETRIC UNIT   40 - ATOMS IN THE UNIT CELL:   80
     ATOM                 X/A                 Y/B                 Z/C    
 *******************************************************************************
      1 T   8 O     5.584798304301E-02  4.305910258048E-01 -2.867095660896E-01
      2 T   8 O    -5.584798304507E-02 -6.940897419462E-02 -2.132904339131E-01
      3 F   8 O    -5.584798304301E-02 -4.305910258048E-01  2.867095660896E-01
      4 F   8 O     5.584798304095E-02  6.940897419569E-02  2.132904339078E-01
      5 T   8 O     4.539539759625E-01 -1.889504076977E-03  3.025729511773E-01
      6 T   8 O    -4.539539759645E-01  4.981104959236E-01  1.974270488201E-01
      7 F   8 O    -4.539539759625E-01  1.889504076977E-03 -3.025729511773E-01
      8 F   8 O     4.539539759604E-01 -4.981104959225E-01 -1.974270488254E-01
      9 T   7 N    -2.120015878266E-01  4.333798154350E-02  3.402105764897E-01
     10 T   7 N     2.120015878246E-01 -4.566620184560E-01  1.597894235077E-01
     11 F   7 N     2.120015878266E-01 -4.333798154350E-02 -3.402105764897E-01
     12 F   7 N    -2.120015878287E-01  4.566620184570E-01 -1.597894235130E-01
     13 T   6 C    -1.495842350046E-01  1.381189905875E-01  4.365230967327E-01
     14 T   6 C     1.495842350026E-01 -3.618810094120E-01  6.347690326465E-02
     15 F   6 C     1.495842350046E-01 -1.381189905875E-01 -4.365230967327E-01
     16 F   6 C    -1.495842350067E-01  3.618810094130E-01 -6.347690326994E-02
     17 T   6 C    -2.376027369036E-01  1.421631633239E-01 -4.853274778857E-01
     18 T   6 C     2.376027369015E-01 -3.578368366756E-01 -1.467252211690E-02
     19 F   6 C     2.376027369036E-01 -1.421631633239E-01  4.853274778857E-01
     20 F   6 C    -2.376027369056E-01  3.578368366767E-01  1.467252211162E-02
     21 T   6 C    -1.662579006697E-01  2.401505525246E-01 -3.930433624814E-01
     22 T   6 C     1.662579006676E-01 -2.598494474749E-01 -1.069566375213E-01
     23 F   6 C     1.662579006697E-01 -2.401505525246E-01  3.930433624814E-01
     24 F   6 C    -1.662579006717E-01  2.598494474759E-01  1.069566375160E-01
     25 T   6 C    -4.836637630869E-03  3.350326353021E-01 -3.759910837917E-01
     26 T   6 C     4.836637628811E-03 -1.649673646974E-01 -1.240089162110E-01
     27 F   6 C     4.836637630869E-03 -3.350326353021E-01  3.759910837917E-01
     28 F   6 C    -4.836637632927E-03  1.649673646985E-01  1.240089162057E-01
     29 T   6 C     8.637055174037E-02  3.285553783648E-01 -4.526497960192E-01
     30 T   6 C    -8.637055174243E-02 -1.714446216347E-01 -4.735020398341E-02
     31 F   6 C    -8.637055174037E-02 -3.285553783648E-01  4.526497960192E-01
     32 F   6 C     8.637055173832E-02  1.714446216358E-01  4.735020397812E-02
     33 T   6 C     1.405660189796E-02  2.315610730110E-01  4.549060650274E-01
     34 T   6 C    -1.405660190002E-02 -2.684389269885E-01  4.509393497000E-02
     35 F   6 C    -1.405660189796E-02 -2.315610730110E-01 -4.549060650274E-01
     36 F   6 C     1.405660189590E-02  2.684389269895E-01 -4.509393497528E-02
     37 T   6 C    -3.990419675309E-01 -1.714130967526E-02  2.778994848056E-01
     38 T   6 C     3.990419675289E-01  4.828586903253E-01  2.221005151918E-01
     39 F   6 C     3.990419675309E-01  1.714130967526E-02 -2.778994848056E-01
     40 F   6 C    -3.990419675330E-01 -4.828586903242E-01 -2.221005151971E-01
     41 T   6 C    -4.184238116732E-01 -1.069410224415E-01  1.748457063540E-01
     42 T   6 C     4.184238116711E-01  3.930589775590E-01  3.251542936433E-01
     43 F   6 C     4.184238116732E-01  1.069410224415E-01 -1.748457063540E-01
     44 F   6 C    -4.184238116752E-01 -3.930589775579E-01 -3.251542936486E-01
     45 T   1 H    -3.616126012459E-01  6.976271022464E-02 -4.946863996483E-01
     46 T   1 H     3.616126012438E-01 -4.302372897748E-01 -5.313600354309E-03
     47 F   1 H     3.616126012459E-01 -6.976271022464E-02  4.946863996483E-01
     48 F   1 H    -3.616126012479E-01  4.302372897759E-01  5.313600349024E-03
     49 T   1 H    -2.375957287494E-01  2.413485151866E-01 -3.335198045887E-01
     50 T   1 H     2.375957287474E-01 -2.586514848129E-01 -1.664801954140E-01
     51 F   1 H     2.375957287494E-01 -2.413485151866E-01  3.335198045887E-01
     52 F   1 H    -2.375957287515E-01  2.586514848139E-01  1.664801954087E-01
     53 T   1 H     2.121798175087E-01  4.007984293875E-01 -4.418354378846E-01
     54 T   1 H    -2.121798175107E-01 -9.920157061196E-02 -5.816456211806E-02
     55 F   1 H    -2.121798175087E-01 -4.007984293875E-01  4.418354378846E-01
     56 F   1 H     2.121798175066E-01  9.920157061304E-02  5.816456211278E-02
     57 T   1 H     8.707488119122E-02  2.285149163772E-01  3.962520181483E-01
     58 T   1 H    -8.707488119327E-02 -2.714850836222E-01  1.037479818491E-01
     59 F   1 H    -8.707488119122E-02 -2.285149163772E-01 -3.962520181483E-01
     60 F   1 H     8.707488118916E-02  2.714850836233E-01 -1.037479818543E-01
     61 T   1 H     1.957042062067E-01  4.698159805139E-01 -2.654426664436E-01
     62 T   1 H    -1.957042062088E-01 -3.018401948559E-02 -2.345573335591E-01
     63 F   1 H    -1.957042062067E-01 -4.698159805139E-01  2.654426664436E-01
     64 F   1 H     1.957042062047E-01  3.018401948667E-02  2.345573335538E-01
     65 T   1 H    -1.051717431690E-01  2.819900243958E-02  3.091816774598E-01
     66 T   1 H     1.051717431669E-01 -4.718009975599E-01  1.908183225375E-01
     67 F   1 H     1.051717431690E-01 -2.819900243958E-02 -3.091816774598E-01
     68 F   1 H    -1.051717431710E-01  4.718009975610E-01 -1.908183225428E-01
     69 T   1 H     4.337511440972E-01 -8.527650638368E-02  9.864519782203E-02
     70 T   1 H    -4.337511440993E-01  4.147234936169E-01  4.013548021753E-01
     71 F   1 H    -4.337511440972E-01  8.527650638368E-02 -9.864519782203E-02
     72 F   1 H     4.337511440952E-01 -4.147234936158E-01 -4.013548021806E-01
     73 T   1 H    -2.920022051166E-01 -8.965505885809E-02  1.507924298221E-01
     74 T   1 H     2.920022051146E-01  4.103449411424E-01  3.492075701752E-01
     75 F   1 H     2.920022051166E-01  8.965505885809E-02 -1.507924298221E-01
     76 F   1 H    -2.920022051187E-01 -4.103449411414E-01 -3.492075701805E-01
     77 T   1 H    -4.204926656049E-01 -2.207981012605E-01  1.952878890886E-01
     78 T   1 H     4.204926656029E-01  2.792018987400E-01  3.047121109087E-01
     79 F   1 H     4.204926656049E-01  2.207981012605E-01 -1.952878890886E-01
     80 F   1 H    -4.204926656070E-01 -2.792018987389E-01 -3.047121109140E-01

 T = ATOM BELONGING TO THE ASYMMETRIC UNIT

 ****    2 SYMMOPS - TRANSLATORS IN FRACTIONAL UNITS
 **** MATRICES AND TRANSLATORS IN THE CRYSTALLOGRAPHIC REFERENCE FRAME
   V INV                    ROTATION MATRICES                   TRANSLATORS
   1   1  1.00  0.00  0.00  0.00  1.00  0.00  0.00  0.00  1.00  0.00  0.00  0.00
   2   2 -1.00  0.00  0.00  0.00 -1.00  0.00 -0.00 -0.00 -1.00  0.00  0.00  0.00

 DIRECT LATTICE VECTORS CARTESIAN COMPONENTS (ANGSTROM)
          X                    Y                    Z
   0.716293242778E+01   0.443775879918E-15  -0.317885861712E-01
   0.703755018267E-17   0.927618344335E+01  -0.250972257075E-17
  -0.557730539194E+01   0.777451876172E-15   0.113769395227E+02


 CARTESIAN COORDINATES - PRIMITIVE CELL
 *******************************************************************************
 *      ATOM          X(ANGSTROM)         Y(ANGSTROM)         Z(ANGSTROM)
 *******************************************************************************
    1     8 O     1.999102137637E+00  3.994241344426E+00 -3.263652722402E+00
    2     8 O     7.895505583330E-01 -6.438503772440E-01 -2.424817038978E+00
    3     8 O    -1.999102137637E+00 -3.994241344426E+00  3.263652722402E+00
    4     8 O    -7.895505583330E-01  6.438503772540E-01  2.424817038918E+00
    5     8 O     1.564099903085E+00 -1.752738643500E-02  3.427923611666E+00
    6     8 O    -4.352752599055E+00  4.620564335245E+00  2.260546149654E+00
    7     8 O    -1.564099903085E+00  1.752738643500E-02 -3.427923611666E+00
    8     8 O     4.352752599055E+00 -4.620564335235E+00 -2.260546149714E+00
    9     7 N    -3.416011330835E+00  4.020110668620E-01  3.877294384449E+00
   10     7 N     6.273586348650E-01 -4.236080654808E+00  1.811175376871E+00
   11     7 N     3.416011330835E+00 -4.020110668620E-01 -3.877294384449E+00
   12     7 N    -6.273586348650E-01  4.236080654818E+00 -1.811175376931E+00
   13     6 C    -3.506084388713E+00  1.281217093700E+00  4.971051943134E+00
   14     6 C     7.174316927430E-01 -3.356874627970E+00  7.174178181860E-01
   15     6 C     3.506084388713E+00 -1.281217093700E+00 -4.971051943134E+00
   16     6 C    -7.174316927430E-01  3.356874627980E+00 -7.174178182460E-01
   17     6 C     1.004887210173E+00  1.318731581879E+00 -5.513988309534E+00
   18     6 C     1.783765485797E+00 -3.319360139791E+00 -1.744814518460E-01
   19     6 C    -1.004887210173E+00 -1.318731581879E+00  5.513988309534E+00
   20     6 C    -1.783765485797E+00  3.319360139801E+00  1.744814517860E-01
   21     6 C     1.001228756752E+00  2.227680579240E+00 -4.466345461147E+00
   22     6 C     1.787423939218E+00 -2.410411142430E+00 -1.222124300233E+00
   23     6 C    -1.001228756752E+00 -2.227680579240E+00  4.466345461147E+00
   24     6 C    -1.787423939218E+00  2.410411142440E+00  1.222124300173E+00
   25     6 C     2.062372590425E+00  3.107824184571E+00 -4.277474071500E+00
   26     6 C     7.262801055450E-01 -1.530267537099E+00 -1.410995689880E+00
   27     6 C    -2.062372590425E+00 -3.107824184571E+00  4.277474071500E+00
   28     6 C    -7.262801055450E-01  1.530267537109E+00  1.410995689820E+00
   29     6 C     3.143232573865E+00  3.047739961011E+00 -5.152514952000E+00
   30     6 C    -3.545798778950E-01 -1.590351760659E+00 -5.359548093800E-01
   31     6 C    -3.143232573865E+00 -3.047739961011E+00  5.152514952000E+00
   32     6 C     3.545798778950E-01  1.590351760669E+00  5.359548093200E-01
   33     6 C    -2.436463559744E+00  2.148002991589E+00  5.174991950825E+00
   34     6 C    -3.521891362260E-01 -2.490088730081E+00  5.134778104950E-01
   35     6 C     2.436463559744E+00 -2.148002991589E+00 -5.174991950825E+00
   36     6 C     3.521891362260E-01  2.490088730091E+00 -5.134778105550E-01
   37     6 C    -4.408240944296E+00 -1.590059330070E-01  3.174330611993E+00
   38     6 C     1.619588248326E+00  4.479085788673E+00  2.514139149327E+00
   39     6 C     4.408240944296E+00  1.590059330070E-01 -3.174330611993E+00
   40     6 C    -1.619588248326E+00 -4.479085788663E+00 -2.514139149387E+00
   41     6 C    -3.972309389995E+00 -9.920045417870E-01  2.002510128387E+00
   42     6 C     1.183656694025E+00  3.646087179893E+00  3.685959632933E+00
   43     6 C     3.972309389995E+00  9.920045417870E-01 -2.002510128387E+00
   44     6 C    -1.183656694025E+00 -3.646087179883E+00 -3.685959632993E+00
   45     1 H     1.688104963200E-01  6.471316975490E-01 -5.616522098166E+00
   46     1 H     2.619842199650E+00 -3.990960024121E+00 -7.194766321400E-02
   47     1 H    -1.688104963200E-01 -6.471316975490E-01  5.616522098166E+00
   48     1 H    -2.619842199650E+00  3.990960024131E+00  7.194766315400E-02
   49     1 H     1.582596542900E-01  2.238793100651E+00 -3.786881814131E+00
   50     1 H     2.630393041680E+00 -2.399298621019E+00 -1.901587947249E+00
   51     1 H    -1.582596542900E-01 -2.238793100651E+00  3.786881814131E+00
   52     1 H    -2.630393041680E+00  2.399298621029E+00  1.901587947189E+00
   53     1 H     3.984080865417E+00  3.717879754805E+00 -5.033479952211E+00
   54     1 H    -1.195428169447E+00 -9.202119668650E-01 -6.549898091688E-01
   55     1 H    -3.984080865417E+00 -3.717879754805E+00  5.033479952211E+00
   56     1 H     1.195428169447E+00  9.202119668750E-01  6.549898091088E-01
   57     1 H    -1.586307027256E+00  2.119746283857E+00  4.505367258857E+00
   58     1 H    -1.202345668714E+00 -2.518345437813E+00  1.183102502463E+00
   59     1 H     1.586307027256E+00 -2.119746283857E+00 -4.505367258857E+00
   60     1 H     1.202345668714E+00  2.518345437823E+00 -1.183102502523E+00
   61     1 H     2.882270819698E+00  4.358099219864E+00 -3.026146322896E+00
   62     1 H    -9.361812372800E-02 -2.799925018060E-01 -2.662323438484E+00
   63     1 H    -2.882270819698E+00 -4.358099219864E+00  3.026146322896E+00
   64     1 H     9.361812372800E-02  2.799925018160E-01  2.662323438424E+00
   65     1 H    -2.477738726417E+00  2.615791195490E-01  3.520884507008E+00
   66     1 H    -3.109139695530E-01 -4.376512602121E+00  2.167585254312E+00
   67     1 H     2.477738726417E+00 -2.615791195490E-01 -3.520884507008E+00
   68     1 H     3.109139695530E-01  4.376512602131E+00 -2.167585254372E+00
   69     1 H     2.556755741939E+00 -7.910405166230E-01  1.108492114205E+00
   70     1 H    -5.345408437909E+00  3.847051205057E+00  4.579977647115E+00
   71     1 H    -2.556755741939E+00  7.910405166230E-01 -1.108492114205E+00
   72     1 H     5.345408437909E+00 -3.847051205047E+00 -4.579977647175E+00
   73     1 H    -2.932607495924E+00 -8.316567725920E-01  1.724838691827E+00
   74     1 H     1.439547999540E-01  3.806434949088E+00  3.963631069493E+00
   75     1 H     2.932607495924E+00  8.316567725920E-01 -1.724838691827E+00
   76     1 H    -1.439547999540E-01 -3.806434949078E+00 -3.963631069553E+00
   77     1 H    -4.101140746900E+00 -2.048163691236E+00  2.235145371012E+00
   78     1 H     1.312488050930E+00  2.589928030444E+00  3.453324390308E+00
   79     1 H     4.101140746900E+00  2.048163691236E+00 -2.235145371012E+00
   80     1 H    -1.312488050930E+00 -2.589928030434E+00 -3.453324390368E+00

 *******************************************************************************
 STARTING BASIS SET HANDLING 
 *******************************************************************************

 Loading internal basis set: DEF2-MSVP           

 Please cite in your publication:
 Fully Optimized Contracted Gaussian Basis Sets for Atoms Li to Kr. A. Schfer, H. Horn and R. Ahlrichs; J. Chem. Phys. 97, 2571 (1992).                                                                                                                         
 S. Grimme, J. G. Brandenburg, C. Bannwarth, and A. Hansen, J. Chem. Phys., 143, 054107 (2015).                                                                                                                                                                  

 *******************************************************************************
 LOCAL ATOMIC FUNCTIONS BASIS SET
 *******************************************************************************
   ATOM   X(AU)   Y(AU)   Z(AU)  N. TYPE  EXPONENT  S COEF   P COEF   D/F/G COEF
 *******************************************************************************
   1 O    3.778   7.548  -6.167
                                  1 S  
                                         6.773E+03 1.727E-03 0.000E+00 0.000E+00
                                         1.017E+03 1.325E-02 0.000E+00 0.000E+00
                                         2.313E+02 6.603E-02 0.000E+00 0.000E+00
                                         6.501E+01 2.353E-01 0.000E+00 0.000E+00
                                         2.050E+01 5.498E-01 0.000E+00 0.000E+00
                                  2 S  
                                         6.716E+00 1.000E+00 0.000E+00 0.000E+00
                                  3 S  
                                         1.147E+00 1.000E+00 0.000E+00 0.000E+00
                                  4 S  
                                         3.342E-01 1.000E+00 0.000E+00 0.000E+00
                           5-     7 P  
                                         1.769E+01 0.000E+00 4.359E-02 0.000E+00
                                         3.854E+00 0.000E+00 2.318E-01 0.000E+00
                                         1.047E+00 0.000E+00 5.146E-01 0.000E+00
                           8-    10 P  
                                         2.759E-01 0.000E+00 1.000E+00 0.000E+00
                          11-    15 D  
                                         8.000E-01 0.000E+00 0.000E+00 1.000E+00
   2 O    1.492  -1.217  -4.582
   3 O   -3.778  -7.548   6.167
   4 O   -1.492   1.217   4.582
   5 O    2.956  -0.033   6.478
   6 O   -8.226   8.732   4.272
   7 O   -2.956   0.033  -6.478
   8 O    8.226  -8.732  -4.272
   9 N   -6.455   0.760   7.327
                                121 S  
                                         5.072E+03 1.707E-03 0.000E+00 0.000E+00
                                         7.614E+02 1.309E-02 0.000E+00 0.000E+00
                                         1.732E+02 6.510E-02 0.000E+00 0.000E+00
                                         4.867E+01 2.305E-01 0.000E+00 0.000E+00
                                         1.533E+01 5.330E-01 0.000E+00 0.000E+00
                                122 S  
                                         5.019E+00 1.000E+00 0.000E+00 0.000E+00
                                123 S  
                                         8.355E-01 1.000E+00 0.000E+00 0.000E+00
                                124 S  
                                         2.463E-01 1.000E+00 0.000E+00 0.000E+00
                         125-   127 P  
                                         1.355E+01 0.000E+00 4.063E-02 0.000E+00
                                         2.918E+00 0.000E+00 2.209E-01 0.000E+00
                                         7.983E-01 0.000E+00 5.186E-01 0.000E+00
                         128-   130 P  
                                         2.190E-01 0.000E+00 1.000E+00 0.000E+00
                         131-   135 D  
                                         8.000E-01 0.000E+00 0.000E+00 1.000E+00
  10 N    1.186  -8.005   3.423
  11 N    6.455  -0.760  -7.327
  12 N   -1.186   8.005  -3.423
  13 C   -6.626   2.421   9.394
                                181 S  
                                         3.624E+03 1.634E-03 0.000E+00 0.000E+00
                                         5.440E+02 1.252E-02 0.000E+00 0.000E+00
                                         1.237E+02 6.211E-02 0.000E+00 0.000E+00
                                         3.476E+01 2.182E-01 0.000E+00 0.000E+00
                                         1.093E+01 4.980E-01 0.000E+00 0.000E+00
                                182 S  
                                         3.574E+00 1.000E+00 0.000E+00 0.000E+00
                                183 S  
                                         5.748E-01 1.000E+00 0.000E+00 0.000E+00
                                184 S  
                                         1.730E-01 1.000E+00 0.000E+00 0.000E+00
                         185-   187 P  
                                         9.443E+00 0.000E+00 3.790E-02 0.000E+00
                                         2.002E+00 0.000E+00 2.082E-01 0.000E+00
                                         5.463E-01 0.000E+00 5.047E-01 0.000E+00
                         188-   190 P  
                                         1.520E-01 0.000E+00 1.000E+00 0.000E+00
                         191-   195 D  
                                         8.000E-01 0.000E+00 0.000E+00 1.000E+00
  14 C    1.356  -6.344   1.356
  15 C    6.626  -2.421  -9.394
  16 C   -1.356   6.344  -1.356
  17 C    1.899   2.492 -10.420
  18 C    3.371  -6.273  -0.330
  19 C   -1.899  -2.492  10.420
  20 C   -3.371   6.273   0.330
  21 C    1.892   4.210  -8.440
  22 C    3.378  -4.555  -2.309
  23 C   -1.892  -4.210   8.440
  24 C   -3.378   4.555   2.309
  25 C    3.897   5.873  -8.083
  26 C    1.372  -2.892  -2.666
  27 C   -3.897  -5.873   8.083
  28 C   -1.372   2.892   2.666
  29 C    5.940   5.759  -9.737
  30 C   -0.670  -3.005  -1.013
  31 C   -5.940  -5.759   9.737
  32 C    0.670   3.005   1.013
  33 C   -4.604   4.059   9.779
  34 C   -0.666  -4.706   0.970
  35 C    4.604  -4.059  -9.779
  36 C    0.666   4.706  -0.970
  37 C   -8.330  -0.300   5.999
  38 C    3.061   8.464   4.751
  39 C    8.330   0.300  -5.999
  40 C   -3.061  -8.464  -4.751
  41 C   -7.507  -1.875   3.784
  42 C    2.237   6.890   6.965
  43 C    7.507   1.875  -3.784
  44 C   -2.237  -6.890  -6.965
  45 H    0.319   1.223 -10.614
                                661 S  
                                         1.874E+01 1.968E-02 0.000E+00 0.000E+00
                                         2.826E+00 1.380E-01 0.000E+00 0.000E+00
                                         6.401E-01 4.783E-01 0.000E+00 0.000E+00
                                662 S  
                                         1.756E-01 1.000E+00 0.000E+00 0.000E+00
  46 H    4.951  -7.542  -0.136
  47 H   -0.319  -1.223  10.614
  48 H   -4.951   7.542   0.136
  49 H    0.299   4.231  -7.156
  50 H    4.971  -4.534  -3.593
  51 H   -0.299  -4.231   7.156
  52 H   -4.971   4.534   3.593
  53 H    7.529   7.026  -9.512
  54 H   -2.259  -1.739  -1.238
  55 H   -7.529  -7.026   9.512
  56 H    2.259   1.739   1.238
  57 H   -2.998   4.006   8.514
  58 H   -2.272  -4.759   2.236
  59 H    2.998  -4.006  -8.514
  60 H    2.272   4.759  -2.236
  61 H    5.447   8.236  -5.719
  62 H   -0.177  -0.529  -5.031
  63 H   -5.447  -8.236   5.719
  64 H    0.177   0.529   5.031
  65 H   -4.682   0.494   6.654
  66 H   -0.588  -8.270   4.096
  67 H    4.682  -0.494  -6.654
  68 H    0.588   8.270  -4.096
  69 H    4.832  -1.495   2.095
  70 H  -10.101   7.270   8.655
  71 H   -4.832   1.495  -2.095
  72 H   10.101  -7.270  -8.655
  73 H   -5.542  -1.572   3.259
  74 H    0.272   7.193   7.490
  75 H    5.542   1.572  -3.259
  76 H   -0.272  -7.193  -7.490
  77 H   -7.750  -3.870   4.224
  78 H    2.480   4.894   6.526
  79 H    7.750   3.870  -4.224
  80 H   -2.480  -4.894  -6.526

 *******************************************************************************
 FINISHED BASIS SET HANDLING 
 *******************************************************************************

 INFORMATION **** SET_MPP **** PCRYSTAL CALCULATION
 INFORMATION **** READM2 **** NEW DEFAULT: FOCK/KS MATRIX MIXING SET TO 30 %
 INFORMATION **** READM2 **** NEW DEFAULT: FULL DIRECT SCF MODE
 INFORMATION **** READM2 **** NEW DEFAULT: COULOMB BIPOLAR BUFFER SET TO 32 Mb
 INFORMATION **** READM2 **** NEW DEFAULT: EXCHANGE BIPOLAR BUFFER SET TO 32 Mb

 *******************************************************************************
 NEW DEFAULT: DFT INTEGRATION GRID INCREASED TO XLGRID
 NEW DEFAULT: DIIS ACCELERATOR ACTIVE
 USE KEYWORD NODIIS TO TURN IT OFF
 *******************************************************************************

 INFORMATION **** RDDFTP **** PBEh-3c calculation
 INFORMATION **** RDDFTP **** PBEh hybrid functional combined with D3 and gCP

PLEASE CITE:
(1) PBEh-3c Reference
 S. Grimme, J. G. Brandenburg, C. Bannwarth, and A. Hansen, 
 J. Chem. Phys. 143, 054107 (2015)
(2) DFT-D3 Reference
 S. Grimme, J. Antony, S. Ehrlich, and H. Krieg, J. Chem. Phys. 132, 154104 (2010)
(3) gCP Reference
 H. Kruse and S. Grimme J. Chem. Phys, 136, 154101 (2012)
 J. G. Brandenburg, M. Alessio, B. Civalleri, M. F. Peintinger
 T. Bredow, and S. Grimme, J. Phys. Chem. A, 117, 9282 (2013) 

 WARNING **** RDDFTP **** PBEh-3c has to be combined with def2-mSVP basis set
 WARNING **** RDDFTP **** Note: Harmonic frequencies are scaled by 0.95
 WARNING **** RDDFTP **** as recommended in original publication
 INFORMATION **** TOLDEE **** SCF TOL ON TOTAL ENERGY SET TO           9
 INFORMATION **** TOLINTEG **** COULOMB AND EXCHANGE SERIES TOLERANCES MODIFIED
 INFORMATION **** MAXCYCLE **** MAX NUMBER OF SCF CYCLES SET TO          30
 WARNING **** READM2 **** PROBABLE LOSS IN FREQCALC ACCURACY; SCF TOL LT          10
 *******************************************************************************
 N. OF ATOMS PER CELL        80  COULOMB OVERLAP TOL         (T1) 10**   -8
 NUMBER OF SHELLS           380  COULOMB PENETRATION TOL     (T2) 10**   -8
 NUMBER OF AO               732  EXCHANGE OVERLAP TOL        (T3) 10**   -8
 N. OF ELECTRONS PER CELL   320  EXCHANGE PSEUDO OVP (F(G))  (T4) 10**   -8
 CORE ELECTRONS PER CELL     88  EXCHANGE PSEUDO OVP (P(G))  (T5) 10**  -24
 N. OF SYMMETRY OPERATORS     2  POLE ORDER IN MONO ZONE                  4
 *******************************************************************************
 TYPE OF CALCULATION :  RESTRICTED CLOSED SHELL
 KOHN-SHAM HAMILTONIAN

 (EXCHANGE)[CORRELATION] FUNCTIONAL:(PBEh-3c)[PBEh-3c]


 HYBRID EXCHANGE - PERCENTAGE OF FOCK EXCHANGE    42.0000

 CAPPA:IS1  4;IS2  4;IS3  2; K PTS MONK NET  20; SYMMOPS:K SPACE   2;G SPACE   2

 *******************************************************************************
 MAX NUMBER OF SCF CYCLES      30  CONVERGENCE ON DELTAP        10**-19
 WEIGHT OF F(I) IN F(I+1)      50% CONVERGENCE ON ENERGY        10**- 9
 SHRINK. FACT.(MONKH.)    4  4  2  NUMBER OF K POINTS IN THE IBZ     20
 SHRINKING FACTOR(GILAT NET)    4  NUMBER OF K POINTS(GILAT NET)     20
 *******************************************************************************
 *** K POINTS COORDINATES (OBLIQUE COORDINATES IN UNITS OF IS =  4)
   1-R(  0  0  0)   2-C(  1  0  0)   3-R(  2  0  0)   4-C(  0  1  0)
   5-C(  1  1  0)   6-C(  2  1  0)   7-C(  3  1  0)   8-R(  0  2  0)
   9-C(  1  2  0)  10-R(  2  2  0)  11-R(  0  0  1)  12-C(  1  0  1)
  13-R(  2  0  1)  14-C(  0  1  1)  15-C(  1  1  1)  16-C(  2  1  1)
  17-C(  3  1  1)  18-R(  0  2  1)  19-C(  1  2  1)  20-R(  2  2  1)

 DIRECT LATTICE VECTORS COMPON. (A.U.)     RECIP. LATTICE VECTORS COMPON. (A.U.) 
        X            Y            Z              X            Y            Z
   13.5359806    0.0000000   -0.0600717      0.4651961   -0.0000000    0.2280526
    0.0000000   17.5294463   -0.0000000     -0.0000000    0.3584360   -0.0000000
  -10.5395798    0.0000000   21.4992999      0.0012998    0.0000000    0.2928879

 DISK SPACE FOR EIGENVECTORS (FTN 10)    17146368 REALS

 SYMMETRY ADAPTION OF THE BLOCH FUNCTIONS ENABLED
 TTTTTTTTTTTTTTTTTTTTTTTTTTTTTT gordsh1     TELAPSE        0.11 TCPU        0.05

 MATRIX SIZE: P(G) 2266544, F(G)  212282, P(G) IRR  570760, F(G) IRR  106978
 MAX G-VECTOR INDEX FOR 1- AND 2-ELECTRON INTEGRALS 113

 TTTTTTTTTTTTTTTTTTTTTTTTTTTTTT INPUT       TELAPSE        0.57 TCPU        0.50

 NEIGHBORS OF THE NON-EQUIVALENT ATOMS

 N = NUMBER OF NEIGHBORS AT DISTANCE R
    ATOM  N     R/ANG      R/AU   NEIGHBORS (ATOM LABELS AND CELL INDICES)
   1 O    1     0.9843     1.8600   61 H    0 0 0
   1 O    1     1.3482     2.5477   25 C    0 0 0
   1 O    1     2.0488     3.8716   68 H    0 0 0
   1 O    1     2.3586     4.4571   21 C    0 0 0
   1 O    1     2.4026     4.5403   29 C    0 0 0
   1 O    1     2.5969     4.9075   49 H    0 0 0

   2 O    1     0.9843     1.8600   62 H    0 0 0
   2 O    1     1.3482     2.5477   26 C    0 0 0
   2 O    1     2.0488     3.8716   67 H    0 0 0
   2 O    1     2.3586     4.4571   22 C    0 0 0
   2 O    1     2.4026     4.5403   30 C    0 0 0
   2 O    1     2.5969     4.9075   50 H    0 0 0

   5 O    1     1.2325     2.3290   37 C    1 0 0
   5 O    1     1.6843     3.1829   64 H    0 0 0
   5 O    1     2.2617     4.2739    9 N    1 0 0
   5 O    1     2.3914     4.5190   41 C    1 0 0
   5 O    1     2.4023     4.5398   45 H    1 0 1
   5 O    1     2.6197     4.9505   78 H    0 0 0

   6 O    1     1.2325     2.3290   38 C   -1 0 0
   6 O    1     1.6843     3.1829   63 H    0 1 0
   6 O    1     2.2617     4.2739   10 N   -1 1 0
   6 O    1     2.3914     4.5190   42 C   -1 0 0
   6 O    1     2.4023     4.5398   46 H   -1 1 0
   6 O    1     2.6197     4.9505   77 H    0 1 0

   9 N    1     1.0135     1.9152   65 H    0 0 0
   9 N    1     1.3392     2.5307   37 C    0 0 0
   9 N    1     1.4062     2.6573   13 C    0 0 0
   9 N    1     2.2617     4.2739    5 O   -1 0 0
   9 N    1     2.3858     4.5085   33 C    0 0 0
   9 N    1     2.4016     4.5383   41 C    0 0 0

  10 N    1     1.0135     1.9152   66 H    0 0 0
  10 N    1     1.3392     2.5307   38 C    0-1 0
  10 N    1     1.4062     2.6573   14 C    0 0 0
  10 N    1     2.2617     4.2739    6 O    1-1 0
  10 N    1     2.3858     4.5085   34 C    0 0 0
  10 N    1     2.4016     4.5383   42 C    0-1 0

  13 C    1     1.3907     2.6280   17 C    0 0 1
  13 C    1     1.3918     2.6300   33 C    0 0 0
  13 C    1     1.4062     2.6573    9 N    0 0 0
  13 C    1     2.0494     3.8729   65 H    0 0 0
  13 C    1     2.1461     4.0555   57 H    0 0 0
  13 C    1     2.1551     4.0725   45 H    0 0 1

  14 C    1     1.3907     2.6280   18 C    0 0 0
  14 C    1     1.3918     2.6300   34 C    0 0 0
  14 C    1     1.4062     2.6573   10 N    0 0 0
  14 C    1     2.0494     3.8729   66 H    0 0 0
  14 C    1     2.1461     4.0555   58 H    0 0 0
  14 C    1     2.1551     4.0725   46 H    0 0 0

  17 C    1     1.0773     2.0358   45 H    0 0 0
  17 C    1     1.3870     2.6210   21 C    0 0 0
  17 C    1     1.3907     2.6280   13 C    0 0-1
  17 C    1     2.1322     4.0292   49 H    0 0 0
  17 C    1     2.3923     4.5209   33 C    0 0-1
  17 C    1     2.4183     4.5699   25 C    0 0 0

  18 C    1     1.0773     2.0358   46 H    0 0 0
  18 C    1     1.3870     2.6210   22 C    0 0 0
  18 C    1     1.3907     2.6280   14 C    0 0 0
  18 C    1     2.1322     4.0292   50 H    0 0 0
  18 C    1     2.3923     4.5209   34 C    0 0 0
  18 C    1     2.4183     4.5699   26 C    0 0 0

  21 C    1     1.0828     2.0461   49 H    0 0 0
  21 C    1     1.3870     2.6210   17 C    0 0 0
  21 C    1     1.3915     2.6296   25 C    0 0 0
  21 C    1     2.1246     4.0149   45 H    0 0 0
  21 C    1     2.3586     4.4571    1 O    0 0 0
  21 C    1     2.3941     4.5241   29 C    0 0 0

  22 C    1     1.0828     2.0461   50 H    0 0 0
  22 C    1     1.3870     2.6210   18 C    0 0 0
  22 C    1     1.3915     2.6296   26 C    0 0 0
  22 C    1     2.1246     4.0149   46 H    0 0 0
  22 C    1     2.3586     4.4571    2 O    0 0 0
  22 C    1     2.3941     4.5241   30 C    0 0 0

  25 C    1     1.3482     2.5477    1 O    0 0 0
  25 C    1     1.3915     2.6296   21 C    0 0 0
  25 C    1     1.3920     2.6304   29 C    0 0 0
  25 C    1     1.9497     3.6844   61 H    0 0 0
  25 C    1     2.1498     4.0625   49 H    0 0 0
  25 C    1     2.1533     4.0691   53 H    0 0 0

  26 C    1     1.3482     2.5477    2 O    0 0 0
  26 C    1     1.3915     2.6296   22 C    0 0 0
  26 C    1     1.3920     2.6304   30 C    0 0 0
  26 C    1     1.9497     3.6844   62 H    0 0 0
  26 C    1     2.1498     4.0625   50 H    0 0 0
  26 C    1     2.1533     4.0691   54 H    0 0 0

  29 C    1     1.0818     2.0443   53 H    0 0 0
  29 C    1     1.3823     2.6122   33 C    0 0-1
  29 C    1     1.3920     2.6304   25 C    0 0 0
  29 C    1     2.1296     4.0243   57 H    0 0-1
  29 C    1     2.3941     4.5241   21 C    0 0 0
  29 C    1     2.4026     4.5403    1 O    0 0 0

  30 C    1     1.0818     2.0443   54 H    0 0 0
  30 C    1     1.3823     2.6122   34 C    0 0 0
  30 C    1     1.3920     2.6304   26 C    0 0 0
  30 C    1     2.1296     4.0243   58 H    0 0 0
  30 C    1     2.3941     4.5241   22 C    0 0 0
  30 C    1     2.4026     4.5403    2 O    0 0 0

  33 C    1     1.0826     2.0458   57 H    0 0 0
  33 C    1     1.3823     2.6122   29 C    0 0 1
  33 C    1     1.3918     2.6300   13 C    0 0 0
  33 C    1     2.1309     4.0269   53 H    0 0 1
  33 C    1     2.3858     4.5085    9 N    0 0 0
  33 C    1     2.3923     4.5209   17 C    0 0 1

  34 C    1     1.0826     2.0458   58 H    0 0 0
  34 C    1     1.3823     2.6122   30 C    0 0 0
  34 C    1     1.3918     2.6300   14 C    0 0 0
  34 C    1     2.1309     4.0269   54 H    0 0 0
  34 C    1     2.3858     4.5085   10 N    0 0 0
  34 C    1     2.3923     4.5209   18 C    0 0 0

  37 C    1     1.2325     2.3290    5 O   -1 0 0
  37 C    1     1.3392     2.5307    9 N    0 0 0
  37 C    1     1.5024     2.8390   41 C    0 0 0
  37 C    1     2.0059     3.7907   65 H    0 0 0
  37 C    1     2.1320     4.0288   77 H    0 0 0
  37 C    1     2.1392     4.0424   69 H   -1 0 0

  38 C    1     1.2325     2.3290    6 O    1 0 0
  38 C    1     1.3392     2.5307   10 N    0 1 0
  38 C    1     1.5024     2.8390   42 C    0 0 0
  38 C    1     2.0059     3.7907   66 H    0 1 0
  38 C    1     2.1320     4.0288   78 H    0 0 0
  38 C    1     2.1392     4.0424   70 H    1 0 0

  41 C    1     1.0880     2.0561   73 H    0 0 0
  41 C    1     1.0889     2.0576   69 H   -1 0 0
  41 C    1     1.0891     2.0581   77 H    0 0 0
  41 C    1     1.5024     2.8390   37 C    0 0 0
  41 C    1     2.3914     4.5190    5 O   -1 0 0
  41 C    1     2.4016     4.5383    9 N    0 0 0

  42 C    1     1.0880     2.0561   74 H    0 0 0
  42 C    1     1.0889     2.0576   70 H    1 0 0
  42 C    1     1.0891     2.0581   78 H    0 0 0
  42 C    1     1.5024     2.8390   38 C    0 0 0
  42 C    1     2.3914     4.5190    6 O    1 0 0
  42 C    1     2.4016     4.5383   10 N    0 1 0

  45 H    1     1.0773     2.0358   17 C    0 0 0
  45 H    1     2.1246     4.0149   21 C    0 0 0
  45 H    1     2.1551     4.0725   13 C    0 0-1
  45 H    1     2.3209     4.3859   47 H   -1 0-1
  45 H    1     2.4023     4.5398    5 O   -1 0-1
  45 H    1     2.4251     4.5828   49 H    0 0 0

  46 H    1     1.0773     2.0358   18 C    0 0 0
  46 H    1     2.1246     4.0149   22 C    0 0 0
  46 H    1     2.1551     4.0725   14 C    0 0 0
  46 H    1     2.3209     4.3859   48 H    1-1 0
  46 H    1     2.4023     4.5398    6 O    1-1 0
  46 H    1     2.4251     4.5828   50 H    0 0 0

  49 H    1     1.0828     2.0461   21 C    0 0 0
  49 H    1     2.1322     4.0292   17 C    0 0 0
  49 H    1     2.1498     4.0625   25 C    0 0 0
  49 H    1     2.4251     4.5828   45 H    0 0 0
  49 H    1     2.5969     4.9075    1 O    0 0 0
  49 H    1     2.6861     5.0760   68 H    0 0 0

  50 H    1     1.0828     2.0461   22 C    0 0 0
  50 H    1     2.1322     4.0292   18 C    0 0 0
  50 H    1     2.1498     4.0625   26 C    0 0 0
  50 H    1     2.4251     4.5828   46 H    0 0 0
  50 H    1     2.5969     4.9075    2 O    0 0 0
  50 H    1     2.6861     5.0760   67 H    0 0 0

  53 H    1     1.0818     2.0443   29 C    0 0 0
  53 H    1     2.1309     4.0269   33 C    0 0-1
  53 H    1     2.1533     4.0691   25 C    0 0 0
  53 H    1     2.2332     4.2202   72 H    0 1 0
  53 H    1     2.3777     4.4931   61 H    0 0 0
  53 H    1     2.4357     4.6028   57 H    0 0-1

  54 H    1     1.0818     2.0443   30 C    0 0 0
  54 H    1     2.1309     4.0269   34 C    0 0 0
  54 H    1     2.1533     4.0691   26 C    0 0 0
  54 H    1     2.2332     4.2202   71 H    0 0 0
  54 H    1     2.3777     4.4931   62 H    0 0 0
  54 H    1     2.4357     4.6028   58 H    0 0 0

  57 H    1     1.0826     2.0458   33 C    0 0 0
  57 H    1     2.1296     4.0243   29 C    0 0 1
  57 H    1     2.1461     4.0555   13 C    0 0 0
  57 H    1     2.2840     4.3161   65 H    0 0 0
  57 H    1     2.4357     4.6028   53 H    0 0 1
  57 H    1     2.4763     4.6796   74 H    0 0 0

  58 H    1     1.0826     2.0458   34 C    0 0 0
  58 H    1     2.1296     4.0243   30 C    0 0 0
  58 H    1     2.1461     4.0555   14 C    0 0 0
  58 H    1     2.2840     4.3161   66 H    0 0 0
  58 H    1     2.4357     4.6028   54 H    0 0 0
  58 H    1     2.4763     4.6796   73 H    0 0 0

  61 H    1     0.9843     1.8600    1 O    0 0 0
  61 H    1     1.6843     3.1829    8 O    0 1 0
  61 H    1     1.9497     3.6844   25 C    0 0 0
  61 H    1     2.3777     4.4931   53 H    0 0 0
  61 H    1     2.5113     4.7457   29 C    0 0 0
  61 H    1     2.7110     5.1230   68 H    0 0 0

  62 H    1     0.9843     1.8600    2 O    0 0 0
  62 H    1     1.6843     3.1829    7 O    0 0 0
  62 H    1     1.9497     3.6844   26 C    0 0 0
  62 H    1     2.3777     4.4931   54 H    0 0 0
  62 H    1     2.5113     4.7457   30 C    0 0 0
  62 H    1     2.7110     5.1230   67 H    0 0 0

  65 H    1     1.0135     1.9152    9 N    0 0 0
  65 H    1     2.0059     3.7907   37 C    0 0 0
  65 H    1     2.0488     3.8716    4 O    0 0 0
  65 H    1     2.0494     3.8729   13 C    0 0 0
  65 H    1     2.1512     4.0653   73 H    0 0 0
  65 H    1     2.2840     4.3161   57 H    0 0 0

  66 H    1     1.0135     1.9152   10 N    0 0 0
  66 H    1     2.0059     3.7907   38 C    0-1 0
  66 H    1     2.0488     3.8716    3 O    0 0 0
  66 H    1     2.0494     3.8729   14 C    0 0 0
  66 H    1     2.1512     4.0653   74 H    0-1 0
  66 H    1     2.2840     4.3161   58 H    0 0 0

  69 H    1     1.0889     2.0576   41 C    1 0 0
  69 H    1     1.7419     3.2917   77 H    1 0 0
  69 H    1     1.7732     3.3508   73 H    1 0 0
  69 H    1     2.1392     4.0424   37 C    1 0 0
  69 H    1     2.2332     4.2202   56 H    0 0 0
  69 H    1     2.6388     4.9867    5 O    0 0 0

  70 H    1     1.0889     2.0576   42 C   -1 0 0
  70 H    1     1.7419     3.2917   78 H   -1 0 0
  70 H    1     1.7732     3.3508   74 H   -1 0 0
  70 H    1     2.1392     4.0424   38 C   -1 0 0
  70 H    1     2.2332     4.2202   55 H    0 1 0
  70 H    1     2.6388     4.9867    6 O    0 0 0

  73 H    1     1.0880     2.0561   41 C    0 0 0
  73 H    1     1.7623     3.3303   77 H    0 0 0
  73 H    1     1.7732     3.3508   69 H   -1 0 0
  73 H    1     2.1512     4.0653   65 H    0 0 0
  73 H    1     2.1751     4.1103   37 C    0 0 0
  73 H    1     2.4763     4.6796   58 H    0 0 0

  74 H    1     1.0880     2.0561   42 C    0 0 0
  74 H    1     1.7623     3.3303   78 H    0 0 0
  74 H    1     1.7732     3.3508   70 H    1 0 0
  74 H    1     2.1512     4.0653   66 H    0 1 0
  74 H    1     2.1751     4.1103   38 C    0 0 0
  74 H    1     2.4763     4.6796   57 H    0 0 0

  77 H    1     1.0891     2.0581   41 C    0 0 0
  77 H    1     1.7419     3.2917   69 H   -1 0 0
  77 H    1     1.7623     3.3303   73 H    0 0 0
  77 H    1     2.1320     4.0288   37 C    0 0 0
  77 H    1     2.6197     4.9505    6 O    0-1 0
  77 H    1     2.7289     5.1570   63 H    0 0 0

  78 H    1     1.0891     2.0581   42 C    0 0 0
  78 H    1     1.7419     3.2917   70 H    1 0 0
  78 H    1     1.7623     3.3303   74 H    0 0 0
  78 H    1     2.1320     4.0288   38 C    0 0 0
  78 H    1     2.6197     4.9505    5 O    0 0 0
  78 H    1     2.7289     5.1570   64 H    0 0 0


 SYMMETRY ALLOWED INTERNAL DEGREE(S) OF FREEDOM: 120
 TTTTTTTTTTTTTTTTTTTTTTTTTTTTTT SYMM        TELAPSE        0.59 TCPU        0.52
 TTTTTTTTTTTTTTTTTTTTTTTTTTTTTT INT_SCREEN  TELAPSE        0.62 TCPU        0.55

 *******************************************************************************
 *                                                                             *
 *                                                                             *
 *         FFFFF  RRRR   EEEE   QQQ   U   U  EEEE  N   N   CCC  Y   Y          *
 *         F      R   R  E     Q   Q  U   U  E     NN  N  C      Y Y           *
 *         FFF    RRRR   EEEE  Q   Q  U   U  EEEE  N N N  C       Y            *
 *         F      R   R  E     Q  QQ  U   U  E     N  NN  C       Y            *
 *         F      R   R  EEEE   QQ Q   UUU   EEEE  N   N   CCC    Y            *
 *                                                                             *
 *                                                                             *
 * CALCULATION OF PHONON FREQUENCIES AT A SET OF K POINTS BY USING A SUPERCELL *
 * SCHEME. THE FOLLOWING SUPERCELL HAS BEEN USED:                              *
 *     1.000     0.000     0.000                                               *
 *     0.000     1.000     0.000                                               *
 *     0.000     0.000     1.000                                               *
 * THAT PERMITS THE CALCULATION OF MODES AT     1 K POINTS                     *
 * INTENSITIES COMPUTED VIA THE BERRY PHASE APPROACH                           *
 *                                                                             *
 * REFERENCES TO BE QUOTED WHEN USING THIS MODULE:                             *
 *                                                                             *
 * F. Pascale, C.M. Zicovich-Wilson, F. Lopez, B. Civalleri                    *
 * R. Orlando, R. Dovesi                                                       *
 * The calculation of the vibration frequencies of crystalline                 *
 * compounds and its implementation in the CRYSTAL code                        *
 * J. Comput. Chem. 25 (2004) 888-897                                          *
 *                                                                             *
 * C.M. Zicovich-Wilson, F. Pascale, C. Roetti, V.R. Saunders,                 *
 * R. Orlando, R. Dovesi                                                       *
 * The calculation of the vibration frequencies of alpha-quartz:               *
 * the effect of hamiltonian and basis set                                     *
 * J. Comput. Chem. 25 (2004) 1873-1881                                        *
 *******************************************************************************



 ATOMS ISOTOPIC MASS (AMU) FOR FREQUENCY CALCULATION 

    1 O      15.9949    2 O      15.9949    3 O      15.9949    4 O      15.9949
    5 O      15.9949    6 O      15.9949    7 O      15.9949    8 O      15.9949
    9 N      14.0031   10 N      14.0031   11 N      14.0031   12 N      14.0031
   13 C      12.0000   14 C      12.0000   15 C      12.0000   16 C      12.0000
   17 C      12.0000   18 C      12.0000   19 C      12.0000   20 C      12.0000
   21 C      12.0000   22 C      12.0000   23 C      12.0000   24 C      12.0000
   25 C      12.0000   26 C      12.0000   27 C      12.0000   28 C      12.0000
   29 C      12.0000   30 C      12.0000   31 C      12.0000   32 C      12.0000
   33 C      12.0000   34 C      12.0000   35 C      12.0000   36 C      12.0000
   37 C      12.0000   38 C      12.0000   39 C      12.0000   40 C      12.0000
   41 C      12.0000   42 C      12.0000   43 C      12.0000   44 C      12.0000
   45 H       1.0078   46 H       1.0078   47 H       1.0078   48 H       1.0078
   49 H       1.0078   50 H       1.0078   51 H       1.0078   52 H       1.0078
   53 H       1.0078   54 H       1.0078   55 H       1.0078   56 H       1.0078
   57 H       1.0078   58 H       1.0078   59 H       1.0078   60 H       1.0078
   61 H       1.0078   62 H       1.0078   63 H       1.0078   64 H       1.0078
   65 H       1.0078   66 H       1.0078   67 H       1.0078   68 H       1.0078
   69 H       1.0078   70 H       1.0078   71 H       1.0078   72 H       1.0078
   73 H       1.0078   74 H       1.0078   75 H       1.0078   76 H       1.0078
   77 H       1.0078   78 H       1.0078   79 H       1.0078   80 H       1.0078
 *******************************************************************************
 *                                                                             *
 * LIST OF THE K POINTS USED FOF PHONON DISPERSION.                            *
 * IN THESE K POINTS THE DYNAMICAL MATRIX IS DIAGONALIZED                      *
 * AND THE RESULTING FREQUENCIES ARE USED FOR THERMODYNAMICS                   *
 *  K       WEIGHT       COORD                                                 *
 *      1         1.        0 19  0                                            *
 *      2         1.        0 18  0                                            *
 *      3         1.        0 17  0                                            *
 *      4         1.        0 16  0                                            *
 *      5         1.        0 15  0                                            *
 *      6         1.        0 14  0                                            *
 *      7         1.        0 13  0                                            *
 *      8         1.        0 12  0                                            *
 *      9         1.        0 11  0                                            *
 *     10         1.        0 10  0                                            *
 *     11         1.        0  9  0                                            *
 *     12         1.        0  8  0                                            *
 *     13         1.        0  7  0                                            *
 *     14         1.        0  6  0                                            *
 *     15         1.        0  5  0                                            *
 *     16         1.        0  4  0                                            *
 *     17         1.        0  3  0                                            *
 *     18         1.        0  2  0                                            *
 *     19         1.        0  1  0                                            *
 *     20         1.        0  0  0                                            *
 *     21         1.        0  0  0                                            *
 *     22         1.        1  0  0                                            *
 *     23         1.        2  0  0                                            *
 *     24         1.        3  0  0                                            *
 *     25         1.        4  0  0                                            *
 *     26         1.        5  0  0                                            *
 *     27         1.        6  0  0                                            *
 *     28         1.        7  0  0                                            *
 *     29         1.        8  0  0                                            *
 *     30         1.        9  0  0                                            *
 *     31         1.       10  0  0                                            *
 *     32         1.       11  0  0                                            *
 *     33         1.       12  0  0                                            *
 *     34         1.       13  0  0                                            *
 *     35         1.       14  0  0                                            *
 *     36         1.       15  0  0                                            *
 *     37         1.       16  0  0                                            *
 *     38         1.       17  0  0                                            *
 *     39         1.       18  0  0                                            *
 *     40         1.       19  0  0                                            *
 *     41         1.       19  0  0                                            *
 *     42         1.       17  0  1                                            *
 *     43         1.       15  0  2                                            *
 *     44         1.       13  0  3                                            *
 *     45         1.       11  0  4                                            *
 *     46         1.        9  0  5                                            *
 *     47         1.        7  0  6                                            *
 *     48         1.        5  0  7                                            *
 *     49         1.        3  0  8                                            *
 *     50         1.        1  0  9                                            *
 *     51         1.       -1  0 10                                            *
 *     52         1.       -3  0 11                                            *
 *     53         1.       -5  0 12                                            *
[...]
   54-  54    0.3576E-05    415.0565   12.4431  (  1)
   55-  55    0.3615E-05    417.2715   12.5095  (  1)
   56-  56    0.3636E-05    418.4761   12.5456  (  1)
   57-  57    0.3922E-05    434.6527   13.0306  (  1)
   58-  58    0.3966E-05    437.1034   13.1040  (  1)
   59-  59    0.3978E-05    437.7183   13.1225  (  1)
   60-  60    0.4012E-05    439.5937   13.1787  (  1)
   61-  61    0.4878E-05    484.7519   14.5325  (  1)
   62-  62    0.4926E-05    487.1377   14.6040  (  1)
   63-  63    0.5082E-05    494.7878   14.8334  (  1)
   64-  64    0.5087E-05    494.9993   14.8397  (  1)
   65-  65    0.5776E-05    527.4670   15.8131  (  1)
   66-  66    0.5791E-05    528.1436   15.8333  (  1)
   67-  67    0.5799E-05    528.5314   15.8450  (  1)
   68-  68    0.5804E-05    528.7515   15.8516  (  1)
   69-  69    0.6331E-05    552.2196   16.5551  (  1)
   70-  70    0.6463E-05    557.9789   16.7278  (  1)
   71-  71    0.6511E-05    560.0264   16.7892  (  1)
   72-  72    0.6518E-05    560.3202   16.7980  (  1)
   73-  73    0.8540E-05    641.3706   19.2278  (  1)
   74-  74    0.8571E-05    642.5259   19.2624  (  1)
   75-  75    0.8590E-05    643.2441   19.2840  (  1)
   76-  76    0.8647E-05    645.3704   19.3477  (  1)
   77-  77    0.8923E-05    655.5839   19.6539  (  1)
   78-  78    0.8978E-05    657.6215   19.7150  (  1)
   79-  79    0.9039E-05    659.8371   19.7814  (  1)
   80-  80    0.9120E-05    662.7915   19.8700  (  1)
   81-  81    0.9714E-05    684.0499   20.5073  (  1)
   82-  82    0.9733E-05    684.7050   20.5269  (  1)
   83-  83    0.9748E-05    685.2222   20.5424  (  1)
   84-  84    0.9751E-05    685.3407   20.5460  (  1)
   85-  85    0.1164E-04    748.7835   22.4480  (  1)
   86-  86    0.1166E-04    749.5317   22.4704  (  1)
   87-  87    0.1171E-04    751.1282   22.5183  (  1)
   88-  88    0.1172E-04    751.2560   22.5221  (  1)
   89-  89    0.1187E-04    756.0494   22.6658  (  1)
   90-  90    0.1193E-04    758.1318   22.7282  (  1)
   91-  91    0.1204E-04    761.3961   22.8261  (  1)
   92-  92    0.1204E-04    761.5078   22.8294  (  1)
   93-  93    0.1228E-04    769.0500   23.0555  (  1)
   94-  94    0.1242E-04    773.5434   23.1902  (  1)
   95-  95    0.1273E-04    782.9166   23.4712  (  1)
   96-  96    0.1294E-04    789.4265   23.6664  (  1)
   97-  97    0.1480E-04    844.3524   25.3130  (  1)
   98-  98    0.1484E-04    845.4265   25.3452  (  1)
   99-  99    0.1488E-04    846.6644   25.3824  (  1)
  100- 100    0.1491E-04    847.4747   25.4067  (  1)
  101- 101    0.1515E-04    854.3333   25.6123  (  1)
  102- 102    0.1537E-04    860.5655   25.7991  (  1)
  103- 103    0.1549E-04    863.8871   25.8987  (  1)
  104- 104    0.1556E-04    865.8327   25.9570  (  1)
  105- 105    0.1614E-04    881.7450   26.4341  (  1)
  106- 106    0.1620E-04    883.2681   26.4797  (  1)
  107- 107    0.1626E-04    884.9747   26.5309  (  1)
  108- 108    0.1637E-04    887.9583   26.6203  (  1)
  109- 109    0.1717E-04    909.3989   27.2631  (  1)
  110- 110    0.1719E-04    909.9100   27.2784  (  1)
  111- 111    0.1725E-04    911.6570   27.3308  (  1)
  112- 112    0.1727E-04    912.0339   27.3421  (  1)
  113- 113    0.1966E-04    973.1183   29.1734  (  1)
  114- 114    0.1974E-04    975.0999   29.2328  (  1)
  115- 115    0.1981E-04    976.8036   29.2838  (  1)
  116- 116    0.1993E-04    979.6977   29.3706  (  1)
  117- 117    0.2065E-04    997.4171   29.9018  (  1)
  118- 118    0.2092E-04   1003.8068   30.0934  (  1)
  119- 119    0.2094E-04   1004.2244   30.1059  (  1)
  120- 120    0.2121E-04   1010.7232   30.3007  (  1)
  121- 121    0.2177E-04   1023.9816   30.6982  (  1)
  122- 122    0.2181E-04   1024.9923   30.7285  (  1)
  123- 123    0.2184E-04   1025.6679   30.7487  (  1)
  124- 124    0.2191E-04   1027.3714   30.7998  (  1)
  125- 125    0.2343E-04   1062.2679   31.8460  (  1)
  126- 126    0.2344E-04   1062.4947   31.8528  (  1)
  127- 127    0.2345E-04   1062.8330   31.8629  (  1)
  128- 128    0.2348E-04   1063.4878   31.8826  (  1)
  129- 129    0.2410E-04   1077.4661   32.3016  (  1)
  130- 130    0.2420E-04   1079.6561   32.3673  (  1)
  131- 131    0.2420E-04   1079.7815   32.3710  (  1)
  132- 132    0.2422E-04   1080.0436   32.3789  (  1)
  133- 133    0.2478E-04   1092.4593   32.7511  (  1)
  134- 134    0.2483E-04   1093.5946   32.7851  (  1)
  135- 135    0.2491E-04   1095.4594   32.8410  (  1)
  136- 136    0.2501E-04   1097.6223   32.9059  (  1)
  137- 137    0.2869E-04   1175.5634   35.2425  (  1)
  138- 138    0.2892E-04   1180.3066   35.3847  (  1)
  139- 139    0.2898E-04   1181.4086   35.4177  (  1)
  140- 140    0.2911E-04   1184.0555   35.4971  (  1)
  141- 141    0.3214E-04   1244.2321   37.3011  (  1)
  142- 142    0.3215E-04   1244.4150   37.3066  (  1)
  143- 143    0.3229E-04   1247.1505   37.3886  (  1)
  144- 144    0.3248E-04   1250.8210   37.4987  (  1)
  145- 145    0.3533E-04   1304.6091   39.1112  (  1)
  146- 146    0.3538E-04   1305.5058   39.1381  (  1)
  147- 147    0.3545E-04   1306.7871   39.1765  (  1)
  148- 148    0.3559E-04   1309.3833   39.2543  (  1)
  149- 149    0.3623E-04   1321.0172   39.6031  (  1)
  150- 150    0.3628E-04   1321.9489   39.6310  (  1)
  151- 151    0.3631E-04   1322.5708   39.6497  (  1)
  152- 152    0.3647E-04   1325.4523   39.7361  (  1)
  153- 153    0.3786E-04   1350.3646   40.4829  (  1)
  154- 154    0.3787E-04   1350.6100   40.4903  (  1)
  155- 155    0.3811E-04   1354.8625   40.6178  (  1)
  156- 156    0.3831E-04   1358.4987   40.7268  (  1)
  157- 157    0.3858E-04   1363.2008   40.8677  (  1)
  158- 158    0.3861E-04   1363.7901   40.8854  (  1)
  159- 159    0.3874E-04   1366.0523   40.9532  (  1)
  160- 160    0.3885E-04   1367.9022   41.0087  (  1)
  161- 161    0.4147E-04   1413.4008   42.3727  (  1)
  162- 162    0.4177E-04   1418.4802   42.5250  (  1)
  163- 163    0.4192E-04   1420.9343   42.5985  (  1)
  164- 164    0.4203E-04   1422.8072   42.6547  (  1)
  165- 165    0.4385E-04   1453.2821   43.5683  (  1)
  166- 166    0.4386E-04   1453.5530   43.5764  (  1)
  167- 167    0.4394E-04   1454.8584   43.6156  (  1)
  168- 168    0.4404E-04   1456.4104   43.6621  (  1)
  169- 169    0.4445E-04   1463.2002   43.8656  (  1)
  170- 170    0.4458E-04   1465.3812   43.9310  (  1)
  171- 171    0.4472E-04   1467.6543   43.9992  (  1)
  172- 172    0.4481E-04   1469.2282   44.0464  (  1)
  173- 173    0.4814E-04   1522.7994   45.6524  (  1)
  174- 174    0.4815E-04   1522.9446   45.6567  (  1)
  175- 175    0.4823E-04   1524.2126   45.6947  (  1)
  176- 176    0.4842E-04   1527.1294   45.7822  (  1)
  177- 177    0.4845E-04   1527.7496   45.8008  (  1)
  178- 178    0.4856E-04   1529.4817   45.8527  (  1)
  179- 179    0.4885E-04   1533.9468   45.9866  (  1)
  180- 180    0.4897E-04   1535.8663   46.0441  (  1)
  181- 181    0.4967E-04   1546.8247   46.3726  (  1)
  182- 182    0.4969E-04   1547.0311   46.3788  (  1)
  183- 183    0.5007E-04   1552.9893   46.5574  (  1)
  184- 184    0.5021E-04   1555.1459   46.6221  (  1)
  185- 185    0.5382E-04   1610.0386   48.2677  (  1)
  186- 186    0.5384E-04   1610.4699   48.2807  (  1)
  187- 187    0.5474E-04   1623.8354   48.6814  (  1)
  188- 188    0.5474E-04   1623.8392   48.6815  (  1)
  189- 189    0.5786E-04   1669.4519   50.0489  (  1)
  190- 190    0.5809E-04   1672.7155   50.1467  (  1)
  191- 191    0.5815E-04   1673.5606   50.1721  (  1)
  192- 192    0.5836E-04   1676.6884   50.2659  (  1)
  193- 193    0.6153E-04   1721.5360   51.6104  (  1)
  194- 194    0.6156E-04   1722.0298   51.6252  (  1)
  195- 195    0.6171E-04   1724.0584   51.6860  (  1)
  196- 196    0.6176E-04   1724.7283   51.7061  (  1)
  197- 197    0.6316E-04   1744.2707   52.2919  (  1)
  198- 198    0.6338E-04   1747.2237   52.3804  (  1)
  199- 199    0.6348E-04   1748.5974   52.4216  (  1)
  200- 200    0.6385E-04   1753.7890   52.5773  (  1)
  201- 201    0.6550E-04   1776.2039   53.2493  (  1)
  202- 202    0.6574E-04   1779.5441   53.3494  (  1)
  203- 203    0.6589E-04   1781.4843   53.4076  (  1)
  204- 204    0.6654E-04   1790.2468   53.6702  (  1)
  205- 205    0.2053E-03   3144.4972   94.2697  (  1)
  206- 206    0.2053E-03   3144.9499   94.2832  (  1)
  207- 207    0.2053E-03   3145.0642   94.2867  (  1)
  208- 208    0.2054E-03   3145.1998   94.2907  (  1)
  209- 209    0.2171E-03   3233.7108   96.9442  (  1)
  210- 210    0.2171E-03   3233.8561   96.9486  (  1)
  211- 211    0.2171E-03   3233.8679   96.9489  (  1)
  212- 212    0.2171E-03   3233.9244   96.9506  (  1)
  213- 213    0.2173E-03   3235.5745   97.0001  (  1)
  214- 214    0.2174E-03   3235.9416   97.0111  (  1)
  215- 215    0.2174E-03   3236.2540   97.0205  (  1)
  216- 216    0.2175E-03   3236.5279   97.0287  (  1)
  217- 217    0.2219E-03   3269.4011   98.0142  (  1)
  218- 218    0.2219E-03   3269.5751   98.0194  (  1)
  219- 219    0.2219E-03   3269.6535   98.0217  (  1)
  220- 220    0.2220E-03   3269.8052   98.0263  (  1)
  221- 221    0.2234E-03   3280.1979   98.3379  (  1)
  222- 222    0.2234E-03   3280.5838   98.3494  (  1)
  223- 223    0.2235E-03   3280.7712   98.3550  (  1)
  224- 224    0.2235E-03   3281.2954   98.3708  (  1)
  225- 225    0.2239E-03   3284.1613   98.4567  (  1)
  226- 226    0.2239E-03   3284.2728   98.4600  (  1)
  227- 227    0.2239E-03   3284.3423   98.4621  (  1)
  228- 228    0.2239E-03   3284.3732   98.4630  (  1)
  229- 229    0.2325E-03   3346.6595  100.3303  (  1)
  230- 230    0.2325E-03   3346.6759  100.3308  (  1)
  231- 231    0.2332E-03   3351.8673  100.4865  (  1)
  232- 232    0.2334E-03   3352.7178  100.5120  (  1)
  233- 233    0.2446E-03   3432.5320  102.9047  (  1)
  234- 234    0.2449E-03   3434.5329  102.9647  (  1)
  235- 235    0.2454E-03   3437.8810  103.0651  (  1)
  236- 236    0.2460E-03   3442.2326  103.1955  (  1)
  237- 237    0.2660E-03   3579.3884  107.3074  (  1)
  238- 238    0.2661E-03   3579.9051  107.3229  (  1)
  239- 239    0.2665E-03   3582.7055  107.4068  (  1)
  240- 240    0.2665E-03   3582.7295  107.4075  (  1)

 4560 DATA WRITTEN ON UNIT 25 WITH THE FOLLOWING HEADER :
 -%-0BAND      1    1    1    1    1    0
 TTTTTTTTTTTTTTTTTTTTTTTTTTTTTT END         TELAPSE       20.89 TCPU       20.24
 EEEEEEEEEE TERMINATION  DATE 09 06 2022 TIME 14:59:18.5
NODE    0 CPU TIME =        20.243
NODE    1 CPU TIME =         3.144
NODE    2 CPU TIME =         3.157
NODE    3 CPU TIME =         3.151
NODE    4 CPU TIME =         3.166
NODE    5 CPU TIME =         3.168
    TOTAL CPU TIME =        36.029
Note: The following floating-point exceptions are signalling: IEEE_UNDERFLOW_FLAG IEEE_DENORMAL
Note: The following floating-point exceptions are signalling: IEEE_UNDERFLOW_FLAG
Note: The following floating-point exceptions are signalling: IEEE_UNDERFLOW_FLAG
Note: The following floating-point exceptions are signalling: IEEE_UNDERFLOW_FLAG
Note: The following floating-point exceptions are signalling: IEEE_UNDERFLOW_FLAG
Note: The following floating-point exceptions are signalling: IEEE_UNDERFLOW_FLAG
CALCULATION END DATE Thu  9 Jun 14:59:18 BST 2022
 
TEMPORARY          SAVED (in /home/huanyu/Desktop/dispersion)
binary wf (fort.9) is not written on this node
fort.34            f1-disp.gui       6514     Jun 9 14:59
SCFOUT.LOG         f1-disp.SCFLOG    72997    Jun 9 14:59
FREQINFO.DAT       f1-disp.FREQINFO  35255486 Jun 9 14:59
fort.13            f1-disp.f13       18132360 Jun 9 14:59
fort.25            f1-disp.f25       392057   Jun 9 14:59
PHONBANDS.DAT      f1-disp.PHONBANDS 421012   Jun 9 14:59
 
Disk usage:total 61112
-rw-r--r-- 1 huanyu users        0 Jun  9 14:58 dffit3.dat
-rw-r--r-- 1 huanyu users        0 Jun  9 14:58 diis_err1.pe0
-rw-r--r-- 1 huanyu users        0 Jun  9 14:58 diis_err1.pe1
-rw-r--r-- 1 huanyu users        0 Jun  9 14:58 diis_err1.pe2
-rw-r--r-- 1 huanyu users        0 Jun  9 14:58 diis_err1.pe3
-rw-r--r-- 1 huanyu users        0 Jun  9 14:58 diis_err1.pe4
-rw-r--r-- 1 huanyu users        0 Jun  9 14:58 diis_err1.pe5
-rw-r--r-- 1 huanyu users        0 Jun  9 14:58 diis_err2.pe0
-rw-r--r-- 1 huanyu users        0 Jun  9 14:58 diis_err2.pe1
-rw-r--r-- 1 huanyu users        0 Jun  9 14:58 diis_err2.pe2
-rw-r--r-- 1 huanyu users        0 Jun  9 14:58 diis_err2.pe3
-rw-r--r-- 1 huanyu users        0 Jun  9 14:58 diis_err2.pe4
-rw-r--r-- 1 huanyu users        0 Jun  9 14:58 diis_err2.pe5
-rw-r--r-- 1 huanyu users        0 Jun  9 14:58 diis_Fg
-rw-r--r-- 1 huanyu users        0 Jun  9 14:58 diis_Sk.pe0
-rw-r--r-- 1 huanyu users        0 Jun  9 14:58 diis_Sk.pe1
-rw-r--r-- 1 huanyu users        0 Jun  9 14:58 diis_Sk.pe2
-rw-r--r-- 1 huanyu users        0 Jun  9 14:58 diis_Sk.pe3
-rw-r--r-- 1 huanyu users        0 Jun  9 14:58 diis_Sk.pe4
-rw-r--r-- 1 huanyu users        0 Jun  9 14:58 diis_Sk.pe5
-rw-r--r-- 1 huanyu users        0 Jun  9 14:58 fort.10.pe0
-rw-r--r-- 1 huanyu users        0 Jun  9 14:58 fort.10.pe1
-rw-r--r-- 1 huanyu users        0 Jun  9 14:58 fort.10.pe2
-rw-r--r-- 1 huanyu users        0 Jun  9 14:58 fort.10.pe3
-rw-r--r-- 1 huanyu users        0 Jun  9 14:58 fort.10.pe4
-rw-r--r-- 1 huanyu users        0 Jun  9 14:58 fort.10.pe5
-rw-r--r-- 1 huanyu users        0 Jun  9 14:58 fort.11.pe0
-rw-r--r-- 1 huanyu users        0 Jun  9 14:58 fort.11.pe1
-rw-r--r-- 1 huanyu users        0 Jun  9 14:58 fort.11.pe2
-rw-r--r-- 1 huanyu users        0 Jun  9 14:58 fort.11.pe3
-rw-r--r-- 1 huanyu users        0 Jun  9 14:58 fort.11.pe4
-rw-r--r-- 1 huanyu users        0 Jun  9 14:58 fort.11.pe5
-rw-r--r-- 1 huanyu users        0 Jun  9 14:58 fort.12
-rw-r--r-- 1 huanyu users 18132360 Jun  9 14:58 fort.13
-rw-r--r-- 1 huanyu users        0 Jun  9 14:58 fort.17.pe1
-rw-r--r-- 1 huanyu users        0 Jun  9 14:58 fort.17.pe2
-rw-r--r-- 1 huanyu users        0 Jun  9 14:58 fort.17.pe3
-rw-r--r-- 1 huanyu users        0 Jun  9 14:58 fort.17.pe4
-rw-r--r-- 1 huanyu users        0 Jun  9 14:58 fort.17.pe5
-rw-r--r-- 1 huanyu users        0 Jun  9 14:58 fort.18.pe0
-rw-r--r-- 1 huanyu users        0 Jun  9 14:58 fort.18.pe1
-rw-r--r-- 1 huanyu users        0 Jun  9 14:58 fort.18.pe2
-rw-r--r-- 1 huanyu users        0 Jun  9 14:58 fort.18.pe3
-rw-r--r-- 1 huanyu users        0 Jun  9 14:58 fort.18.pe4
-rw-r--r-- 1 huanyu users        0 Jun  9 14:58 fort.18.pe5
-rw-r--r-- 1 huanyu users  1472304 Jun  9 14:59 fort.19.pe0
-rw-r--r-- 1 huanyu users        0 Jun  9 14:58 fort.19.pe1
-rw-r--r-- 1 huanyu users        0 Jun  9 14:58 fort.19.pe2
-rw-r--r-- 1 huanyu users        0 Jun  9 14:58 fort.19.pe3
-rw-r--r-- 1 huanyu users        0 Jun  9 14:58 fort.19.pe4
-rw-r--r-- 1 huanyu users        0 Jun  9 14:58 fort.19.pe5
-rw-r--r-- 1 huanyu users        0 Jun  9 14:58 fort.1.pe0
-rw-r--r-- 1 huanyu users        0 Jun  9 14:58 fort.1.pe1
-rw-r--r-- 1 huanyu users        0 Jun  9 14:58 fort.1.pe2
-rw-r--r-- 1 huanyu users        0 Jun  9 14:58 fort.1.pe3
-rw-r--r-- 1 huanyu users        0 Jun  9 14:58 fort.1.pe4
-rw-r--r-- 1 huanyu users        0 Jun  9 14:58 fort.1.pe5
-rw-r--r-- 1 huanyu users  5915820 Jun  9 14:58 fort.20
-rw-r--r-- 1 huanyu users   392057 Jun  9 14:59 fort.25
-rw-r--r-- 1 huanyu users        0 Jun  9 14:58 fort.28
-rw-r--r-- 1 huanyu users        0 Jun  9 14:58 fort.28.pe0
-rw-r--r-- 1 huanyu users        0 Jun  9 14:58 fort.28.pe1
-rw-r--r-- 1 huanyu users        0 Jun  9 14:58 fort.28.pe2
-rw-r--r-- 1 huanyu users        0 Jun  9 14:58 fort.28.pe3
-rw-r--r-- 1 huanyu users        0 Jun  9 14:58 fort.28.pe4
-rw-r--r-- 1 huanyu users        0 Jun  9 14:58 fort.28.pe5
-rw-r--r-- 1 huanyu users        0 Jun  9 14:58 fort.29
-rw-r--r-- 1 huanyu users        0 Jun  9 14:58 fort.29.pe0
-rw-r--r-- 1 huanyu users        0 Jun  9 14:58 fort.29.pe1
-rw-r--r-- 1 huanyu users        0 Jun  9 14:58 fort.29.pe2
-rw-r--r-- 1 huanyu users        0 Jun  9 14:58 fort.29.pe3
-rw-r--r-- 1 huanyu users        0 Jun  9 14:58 fort.29.pe4
-rw-r--r-- 1 huanyu users        0 Jun  9 14:58 fort.29.pe5
-rw-r--r-- 1 huanyu users     6514 Jun  9 14:58 fort.34
-rw-r--r-- 1 huanyu users        0 Jun  9 14:58 fort.38.pe0
-rw-r--r-- 1 huanyu users        0 Jun  9 14:58 fort.38.pe1
-rw-r--r-- 1 huanyu users        0 Jun  9 14:58 fort.38.pe2
-rw-r--r-- 1 huanyu users        0 Jun  9 14:58 fort.38.pe3
-rw-r--r-- 1 huanyu users        0 Jun  9 14:58 fort.38.pe4
-rw-r--r-- 1 huanyu users        0 Jun  9 14:58 fort.38.pe5
-rw-r--r-- 1 huanyu users        0 Jun  9 14:58 fort.3.pe0
-rw-r--r-- 1 huanyu users        0 Jun  9 14:58 fort.3.pe1
-rw-r--r-- 1 huanyu users        0 Jun  9 14:58 fort.3.pe2
-rw-r--r-- 1 huanyu users        0 Jun  9 14:58 fort.3.pe3
-rw-r--r-- 1 huanyu users        0 Jun  9 14:58 fort.3.pe4
-rw-r--r-- 1 huanyu users        0 Jun  9 14:58 fort.3.pe5
-rw-r--r-- 1 huanyu users        0 Jun  9 14:58 fort.40.pe0
-rw-r--r-- 1 huanyu users        0 Jun  9 14:58 fort.40.pe1
-rw-r--r-- 1 huanyu users        0 Jun  9 14:58 fort.40.pe2
-rw-r--r-- 1 huanyu users        0 Jun  9 14:58 fort.40.pe3
-rw-r--r-- 1 huanyu users        0 Jun  9 14:58 fort.40.pe4
-rw-r--r-- 1 huanyu users        0 Jun  9 14:58 fort.40.pe5
-rw-r--r-- 1 huanyu users    79456 Jun  9 14:59 fort.61.pe0
-rw-r--r-- 1 huanyu users    79456 Jun  9 14:59 fort.61.pe1
-rw-r--r-- 1 huanyu users    79456 Jun  9 14:59 fort.61.pe2
-rw-r--r-- 1 huanyu users    79456 Jun  9 14:59 fort.61.pe3
-rw-r--r-- 1 huanyu users   115712 Jun  9 14:59 fort.61.pe4
-rw-r--r-- 1 huanyu users   115712 Jun  9 14:59 fort.61.pe5
-rw-r--r-- 1 huanyu users    29632 Jun  9 14:59 fort.62.pe0
-rw-r--r-- 1 huanyu users    29632 Jun  9 14:59 fort.62.pe1
-rw-r--r-- 1 huanyu users    59264 Jun  9 14:59 fort.62.pe2
-rw-r--r-- 1 huanyu users    29632 Jun  9 14:59 fort.62.pe3
-rw-r--r-- 1 huanyu users    29632 Jun  9 14:59 fort.62.pe4
-rw-r--r-- 1 huanyu users    59264 Jun  9 14:59 fort.62.pe5
-rw-r--r-- 1 huanyu users        0 Jun  9 14:58 fort.82.pe0
-rw-r--r-- 1 huanyu users        0 Jun  9 14:58 fort.82.pe1
-rw-r--r-- 1 huanyu users        0 Jun  9 14:58 fort.82.pe2
-rw-r--r-- 1 huanyu users        0 Jun  9 14:58 fort.82.pe3
-rw-r--r-- 1 huanyu users        0 Jun  9 14:58 fort.82.pe4
-rw-r--r-- 1 huanyu users        0 Jun  9 14:58 fort.82.pe5
-rw-r--r-- 1 huanyu users        0 Jun  9 14:58 fort.83.pe0
-rw-r--r-- 1 huanyu users        0 Jun  9 14:58 fort.83.pe1
-rw-r--r-- 1 huanyu users        0 Jun  9 14:58 fort.83.pe2
-rw-r--r-- 1 huanyu users        0 Jun  9 14:58 fort.83.pe3
-rw-r--r-- 1 huanyu users        0 Jun  9 14:58 fort.83.pe4
-rw-r--r-- 1 huanyu users        0 Jun  9 14:58 fort.83.pe5
-rw-r--r-- 1 huanyu users        0 Jun  9 14:58 fort.8.pe0
-rw-r--r-- 1 huanyu users        0 Jun  9 14:58 fort.8.pe1
-rw-r--r-- 1 huanyu users        0 Jun  9 14:58 fort.8.pe2
-rw-r--r-- 1 huanyu users        0 Jun  9 14:58 fort.8.pe3
-rw-r--r-- 1 huanyu users        0 Jun  9 14:58 fort.8.pe4
-rw-r--r-- 1 huanyu users        0 Jun  9 14:58 fort.8.pe5
-rw-r--r-- 1 huanyu users        0 Jun  9 14:58 fort.9
-rw-r--r-- 1 huanyu users        0 Jun  9 14:58 fort.95.pe0
-rw-r--r-- 1 huanyu users        0 Jun  9 14:58 fort.95.pe1
-rw-r--r-- 1 huanyu users        0 Jun  9 14:58 fort.95.pe2
-rw-r--r-- 1 huanyu users        0 Jun  9 14:58 fort.95.pe3
-rw-r--r-- 1 huanyu users        0 Jun  9 14:58 fort.95.pe4
-rw-r--r-- 1 huanyu users        0 Jun  9 14:58 fort.95.pe5
-rw-r--r-- 1 huanyu users 35255486 Jun  9 14:58 FREQINFO.DAT
-rw-r--r-- 1 huanyu users      318 Jun  9 14:58 INPUT
-rw-r--r-- 1 huanyu users     3310 Jun  9 14:58 Job_script
-rw-r--r-- 1 huanyu users   421012 Jun  9 14:59 PHONBANDS.DAT
-rw-r--r-- 1 huanyu users        0 Jun  9 14:59 PHONONS.DAT
-rw-r--r-- 1 huanyu users     2491 Jun  9 14:58 Post_script
-rw-r--r-- 1 huanyu users    72997 Jun  9 14:59 SCFOUT.LOG
<du -m>
60	/home/huanyu/Desktop/dispersion/tmp_f1-disp
</du -m>
Filesystem      1K-blocks      Used  Available Use% Mounted on
/dev/sda1      3897119540 107375832 3789743708   3% /home
/dev/sda1      3897119540 107375832 3789743708   3% /home
