/home/erba/Mitoli/TESIMAG/bin/Linux-ifort_openmpi-2.1.0-icc_i64_clut/std/Pcrystal
/scratch/alessandro/tmp_p27897
script started on node85
MGO BULK
CRYSTAL
0 0 0
225
4.23898005
2
12 0.    0.    0.
8  0.5   0.5   0.5
ELASTCON
END
END
12 4
0 0 8 2.0 1.0
 68370.0     0.0002226
  9661.0     0.001901
  2041.0     0.011042
   529.6     0.05005
   159.17    0.1690
    54.71    0.36695
    21.236   0.4008
     8.791   0.1487
0 1 5 8.0 1.0
  143.7     -0.00671    0.00807
   31.27    -0.07927    0.06401
    9.661   -0.08088    0.2092
    3.726    0.2947     0.3460
    1.598    0.5714     0.3731
0 1 1 0.0 1.0
    0.688    1.0        1.0
0 1 1 0.0 1.0
    0.28     1.0        1.0
8 4
0 0 8 2.0 1.0
 8020.0    0.00108
 1338.0    0.00804
  255.4    0.05324
   69.22   0.1681
   23.90   0.3581
    9.264  0.3855
    3.851  0.1468
    1.212  0.0728
0 1 4 8.0 1.0
   49.43  -0.00883 0.00958
   10.47  -0.0915  0.0696
    3.235 -0.0402  0.2065
    1.217  0.379   0.347
0 1 1 0.0 1.0
    0.5    1.0     1.0
0 1 1 0.0 1.0
    0.191  1.0     1.0
99   0
END
DFT
B3LYP
XXLGRID
END
TOLINTEG
7 7 7 7 14 
SHRINK 
12 24
MAXCYCLE
200
FMIXING
70
DIIS
END
************************************************
ANOTHER DROLLERY FILLED RUN OF THE CRYSTAL CODE!
************************************************
mer  2 nov 2022, 23.26.20, CET
 PROCESS            9  OF           20  WORKING
 PROCESS           13  OF           20  WORKING
 PROCESS           19  OF           20  WORKING
 PROCESS            1  OF           20  WORKING
 PROCESS            7  OF           20  WORKING
 PROCESS            3  OF           20  WORKING
 PROCESS           11  OF           20  WORKING
 PROCESS            4  OF           20  WORKING
 PROCESS            5  OF           20  WORKING
 PROCESS            8  OF           20  WORKING
 PROCESS           12  OF           20  WORKING
 PROCESS           14  OF           20  WORKING
 PROCESS           15  OF           20  WORKING
 PROCESS           16  OF           20  WORKING
 PROCESS            0  OF           20  WORKING
 PROCESS            2  OF           20  WORKING
 PROCESS            6  OF           20  WORKING
 PROCESS           10  OF           20  WORKING
 PROCESS           18  OF           20  WORKING

         
 *******************************************************************************
 *                                                                             *
 *                               CRYSTAL17                                     *
 *                      public : 1.0.1 - Feb 1st, 2017                         *
 *                       HTTP://WWW.CRYSTAL.UNITO.IT                           *
 *                                                                             *
 *                              MAIN AUTHORS                                   *
 *                                                                             *
 *  R. DOVESI(1,11), V.R. SAUNDERS(2), C. ROETTI(1,11), R. ORLANDO(1,11),      *
 *  C.M. ZICOVICH-WILSON(1,3), F. PASCALE(4), B. CIVALLERI(1,11),              *
 *  K. DOLL(5), N.M. HARRISON(2,6), I.J. BUSH(7), Ph. D'ARCO(8),               *
 *  M. LLUNELL(9), M. CAUSA'(10), Y. NOEL(8), L. MASCHIO(1,11), A. ERBA(1,11)  *
 *  M. RE'RAT(14), S. CASASSA(1,11)                                            *
 *                                                                             *
 *        CONTRIBUTIONS TO THE CODE HAVE ALSO BEEN GIVEN BY                    *
 *                                                                             *
 *  M. FERRABONE(1,11), M. DE LA PIERRE(1,11), M. FERRERO(1,11),               *
 *  J. BAIMA(1,11), E. ALBANESE(1,11), M.F. PEINTINGER(12), R. BAST(13),       *
 *  B. KIRTMAN(15), V. LACIVITA(1,11), R. DEMICHELIS(1,16)                     *
 *  G. BRANDEBURG(17), S. SALUSTRO(1,11), G. SANSONE(1,11)                     *
 *  M.T. RUGGIERO(18)                                                          *
 *                                                                             *
 * (1) THEORETICAL CHEMISTRY GROUP - UNIVERSITA' DI TORINO - TORINO (ITALY)    *

 * (2) COMPUTATIONAL SCIENCE & ENGINEERING DEPARTMENT - STFC DARESBURY (UK)    *
 * (3) UNIVERSIDAD AUTONOMA DEL ESTADO DE MORELOS - CUERNAVACA (MEXICO)        *
 * (4) UNIVERSITE' DE LORRAINE - NANCY (FRANCE)                                *
 * (5) UNIVERSITAET STUTTGART- STUTTGART (GERMANY)                             *
 * (6) IMPERIAL COLLEGE - LONDON (UK)                                          *
 * (7) OXFORD E-RESEARCH CENTRE - OXFORD (UK)                                  *
 * (8) UPMC - SORBONNE UNIVERSITES - PARIS (FRANCE)                            *
 * (9) UNIVERSIDAD DE BARCELONA - BARCELONA (SPAIN)                            *
 *(10) UNIVERSITA' DI NAPOLI "FEDERICO II" - NAPOLI (ITALY)                    *
 *(11) NIS - NANOSTRUCTURED INTERFACES AND SURFACES - TORINO (ITALY)           *
 *(12) MPI FUER CHEMISCHE ENERGIEKONVERSION - MUELHEIM AN DER RUHR (GERMANY)   *
 *(13) UNIVERSITY OF TROMSO - TROMSO (NORWAY)                                  *
 *(14) UNIVERSITE' DE PAU ET DES PAYS DE L'ADOUR - PAU (FRANCE)                *
 *(15) UNIVERSITY OF CALIFORNIA SANTA BARBARA - SANTA BARBARA (USA)            *
 *(16) CURTIN UNIVERSITY - PERTH (AUSTRALIA)                                   *
 *(17) UNIVERSITY COLLEGE LONDON - LONDON (UK)                                 *
 *(18) CAMBRIDGE UNIVERSITY - CAMBRIDGE (UK)                                   *
 *                                                                             *
 *******************************************************************************
 EEEEEEEEEE STARTING  DATE 02 11 2022 TIME 23:26:21.2
 MGO BULK                                                                        
 PROCESS           17  OF           20  WORKING

 CRYSTAL CALCULATION
 (INPUT ACCORDING TO THE INTERNATIONAL TABLES FOR X-RAY CRYSTALLOGRAPHY)
 CRYSTAL FAMILY                       :  CUBIC       
 CRYSTAL CLASS  (GROTH - 1921)        :  CUBIC HEXAKISOCTAHEDRAL              

 SPACE GROUP (CENTROSYMMETRIC)        :  F M 3 M         

 LATTICE PARAMETERS  (ANGSTROMS AND DEGREES) - CONVENTIONAL CELL
        A           B           C        ALPHA        BETA       GAMMA
     4.23898     4.23898     4.23898    90.00000    90.00000    90.00000


 NUMBER OF IRREDUCIBLE ATOMS IN THE CONVENTIONAL CELL:    2

 INPUT COORDINATES

 ATOM AT. N.              COORDINATES
   1  12     0.000000000000E+00  0.000000000000E+00  0.000000000000E+00
   2   8     5.000000000000E-01  5.000000000000E-01  5.000000000000E-01

 *******************************************************************************

 << INFORMATION >>: FROM NOW ON, ALL COORDINATES REFER TO THE PRIMITIVE CELL

 *******************************************************************************

 LATTICE PARAMETERS  (ANGSTROMS AND DEGREES) - PRIMITIVE CELL
       A          B          C        ALPHA      BETA     GAMMA        VOLUME
    2.99741    2.99741    2.99741    60.00000  60.00000  60.00000     19.042507

 COORDINATES OF THE EQUIVALENT ATOMS (FRACTIONAL UNITS)

 N. ATOM EQUIV AT. N.          X                  Y                  Z

   1   1   1   12 MG    0.00000000000E+00  0.00000000000E+00  0.00000000000E+00

   2   2   1    8 O    -5.00000000000E-01 -5.00000000000E-01 -5.00000000000E-01

 NUMBER OF SYMMETRY OPERATORS         :   48
 *******************************************************************************
 * GEOMETRY EDITING - INPUT COORDINATES ARE GIVEN IN ANGSTROM         
 *******************************************************************************

 GEOMETRY NOW FULLY CONSISTENT WITH THE GROUP
 INFORMATION **** NEW DEFAULT **** FINALRUN 4 FOR GEOMETRY OPTIMIZATIONS
 INFORMATION **** NEW DEFAULT **** OPTGEOM OPTIMIZES BOTH ATOMIC COORDINATES AND CELL PARAMETERS
 INFORMATION **** NEW DEFAULT **** TOL. ON ATOMIC DISP TO REDEFINE REF. GEOMETRY: 0.8 Angs
 INFORMATION **** NEW DEFAULT **** N POINTS TO REDEFINE REF. GEOMETRY: N OF OPT DEGS OF FREEDOM
 INFORMATION **** NEW DEFAULT **** TOL. ON ENERGY TO REDEFINE REF. GEOMETRY: 10**-3*(5*N. ATOMS)

 IMPORTANT INFORMATION:
 THE COORDINATE SYSTEM ADOPTED IN THE OPTIMIZATION IS NOT IN
 GENERAL HOMOGENEOUS UNITS. FOR THIS REASON THE GRADIENT AND 
 HESSIAN MATRIX IN TERMS OF THIS SYSTEM ARE GIVEN WITHOUT
 UNITS. FOR MORE DETAILS SEE THE MANUAL.

 INITIAL TRUST RADIUS         0.50000 MAXIMUM TRUST RADIUS               4.00000
 MAXIMUM GRADIENT COMPONENT   0.00045 MAXIMUM DISPLACEMENT COMPONENT     0.00180
 R.M.S. OF GRADIENT COMPONENT 0.00030 R.M.S. OF DISPLACEMENT COMPONENTS  0.00120
 THRESHOLD ON ENERGY CHANGE 0.100E-06 EXTRAPOLATING POLYNOMIAL ORDER           2
 MAXIMUM ALLOWED NUMBER OF STEPS   -1 SORTING OF ENERGY POINTS:               NO
 ANALYTICAL  GRADIENT                 HESSIAN UPDATING                      BFGS
 STEP SIZE NUMERICAL GRADIENT 0.00100
 INITIAL HESSIAN MATRIX: SCHLEGEL MODEL 2
 *******************************************************************************


 ELAELAELAELAELAELAELAELAELAELAELAELAELAELAELAELAELAELAELAELAELAELAELAELAELAELA

                       ELASTIC CALCULATION

 INFORMATION **** TOLDEX ****  CONVERGENCE CRITERION FOR RMS DISPLACEMENT MODIFIED  6.200000E-04
 INFORMATION **** TOLDEG **** MODIFY CONVERGENCE CRITERION FOR RMS GRADIENT  3.000000E-04
 INFORMATION **** TOLDEE **** CONVERGENCE CRITERION FOR ENERGY MODIFIED: 10**-           8

 GCALCO - MAX INDICES DIRECT LATTICE VECTOR    14    14    14
 NO.OF VECTORS CREATED 6999 STARS  105 RMAX    59.94518 BOHR

 GEOMETRY FOR WAVE FUNCTION - DIMENSIONALITY OF THE SYSTEM    3
 (NON PERIODIC DIRECTION: LATTICE PARAMETER FORMALLY SET TO 500)
 *******************************************************************************
 LATTICE PARAMETERS (ANGSTROMS AND DEGREES) - BOHR = 0.5291772083 ANGSTROM
 PRIMITIVE CELL - CENTRING CODE 5/0 VOLUME=    19.042507 - DENSITY  3.486 g/cm^3
         A              B              C           ALPHA      BETA       GAMMA 
     2.99741154     2.99741154     2.99741154    60.000000  60.000000  60.000000
 *******************************************************************************
 ATOMS IN THE ASYMMETRIC UNIT    2 - ATOMS IN THE UNIT CELL:    2
     ATOM                 X/A                 Y/B                 Z/C    
 *******************************************************************************
      1 T  12 MG    0.000000000000E+00  0.000000000000E+00  0.000000000000E+00
      2 T   8 O    -5.000000000000E-01 -5.000000000000E-01 -5.000000000000E-01

 TRANSFORMATION MATRIX PRIMITIVE-CRYSTALLOGRAPHIC CELL
 -1.0000  1.0000  1.0000  1.0000 -1.0000  1.0000  1.0000  1.0000 -1.0000

 *******************************************************************************
 CRYSTALLOGRAPHIC CELL (VOLUME=         76.17002847)
         A              B              C           ALPHA      BETA       GAMMA 
     4.23898005     4.23898005     4.23898005    90.000000  90.000000  90.000000

 COORDINATES IN THE CRYSTALLOGRAPHIC CELL
     ATOM                 X/A                 Y/B                 Z/C    
 *******************************************************************************
      1 T  12 MG    0.000000000000E+00  0.000000000000E+00  0.000000000000E+00
      2 T   8 O    -5.000000000000E-01 -5.000000000000E-01 -5.000000000000E-01

 T = ATOM BELONGING TO THE ASYMMETRIC UNIT

 ****   48 SYMMOPS - TRANSLATORS IN FRACTIONAL UNITS
 **** MATRICES AND TRANSLATORS IN THE CRYSTALLOGRAPHIC REFERENCE FRAME
   V INV                    ROTATION MATRICES                   TRANSLATORS
   1   1  1.00  0.00  0.00  0.00  1.00  0.00  0.00  0.00  1.00  0.00  0.00  0.00
   2   2  0.00  1.00  0.00  1.00 -0.00 -0.00 -1.00 -1.00 -1.00  0.00  0.00  0.00
   3   3 -1.00 -1.00 -1.00  0.00  0.00  1.00  0.00  1.00  0.00  0.00  0.00  0.00
   4   4  0.00  0.00  1.00 -1.00 -1.00 -1.00  1.00 -0.00 -0.00  0.00  0.00  0.00
   5   6  0.00  0.00  1.00  1.00 -0.00 -0.00  0.00  1.00  0.00  0.00  0.00  0.00
   6   5  0.00  1.00  0.00  0.00  0.00  1.00  1.00 -0.00 -0.00  0.00  0.00  0.00
   7   8  1.00 -0.00 -0.00  0.00  0.00  1.00 -1.00 -1.00 -1.00  0.00  0.00  0.00
   8   7  1.00 -0.00 -0.00 -1.00 -1.00 -1.00  0.00  1.00  0.00  0.00  0.00  0.00
   9  10 -1.00 -1.00 -1.00  0.00  1.00  0.00  1.00 -0.00 -0.00  0.00  0.00  0.00
  10   9  0.00  0.00  1.00  0.00  1.00  0.00 -1.00 -1.00 -1.00  0.00  0.00  0.00
  11  12  0.00  1.00  0.00 -1.00 -1.00 -1.00  0.00  0.00  1.00  0.00  0.00  0.00
  12  11 -1.00 -1.00 -1.00  1.00 -0.00 -0.00  0.00  0.00  1.00  0.00  0.00  0.00
  13  13  0.00 -1.00 -0.00 -1.00  0.00  0.00  0.00 -0.00 -1.00  0.00  0.00  0.00
  14  14 -1.00  0.00  0.00  0.00 -1.00 -0.00  1.00  1.00  1.00  0.00  0.00  0.00
  15  16  0.00 -0.00 -1.00  1.00  1.00  1.00  0.00 -1.00 -0.00  0.00  0.00  0.00
  16  15  1.00  1.00  1.00  0.00 -0.00 -1.00 -1.00  0.00  0.00  0.00  0.00  0.00
  17  17 -1.00  0.00  0.00  0.00 -0.00 -1.00  0.00 -1.00 -0.00  0.00  0.00  0.00
  18  18  0.00 -0.00 -1.00  0.00 -1.00 -0.00 -1.00  0.00  0.00  0.00  0.00  0.00
  19  21  0.00 -0.00 -1.00 -1.00  0.00  0.00  1.00  1.00  1.00  0.00  0.00  0.00
  20  22  1.00  1.00  1.00 -1.00  0.00  0.00  0.00 -1.00 -0.00  0.00  0.00  0.00
  21  19  0.00 -1.00 -0.00  1.00  1.00  1.00 -1.00  0.00  0.00  0.00  0.00  0.00
  22  20  0.00 -1.00 -0.00  0.00 -0.00 -1.00  1.00  1.00  1.00  0.00  0.00  0.00
  23  23  1.00  1.00  1.00  0.00 -1.00 -0.00  0.00 -0.00 -1.00  0.00  0.00  0.00
  24  24 -1.00  0.00  0.00  1.00  1.00  1.00  0.00 -0.00 -1.00  0.00  0.00  0.00
  25  25 -1.00  0.00  0.00  0.00 -1.00 -0.00  0.00 -0.00 -1.00  0.00  0.00  0.00
  26  26  0.00 -1.00 -0.00 -1.00  0.00  0.00  1.00  1.00  1.00  0.00  0.00  0.00
  27  27  1.00  1.00  1.00  0.00 -0.00 -1.00  0.00 -1.00 -0.00  0.00  0.00  0.00
  28  28  0.00 -0.00 -1.00  1.00  1.00  1.00 -1.00  0.00  0.00  0.00  0.00  0.00
  29  30  0.00 -0.00 -1.00 -1.00  0.00  0.00  0.00 -1.00 -0.00  0.00  0.00  0.00
  30  29  0.00 -1.00 -0.00  0.00 -0.00 -1.00 -1.00  0.00  0.00  0.00  0.00  0.00
  31  32 -1.00  0.00  0.00  0.00 -0.00 -1.00  1.00  1.00  1.00  0.00  0.00  0.00
  32  31 -1.00  0.00  0.00  1.00  1.00  1.00  0.00 -1.00 -0.00  0.00  0.00  0.00
  33  34  1.00  1.00  1.00  0.00 -1.00 -0.00 -1.00  0.00  0.00  0.00  0.00  0.00
  34  33  0.00 -0.00 -1.00  0.00 -1.00 -0.00  1.00  1.00  1.00  0.00  0.00  0.00
  35  36  0.00 -1.00 -0.00  1.00  1.00  1.00  0.00 -0.00 -1.00  0.00  0.00  0.00
  36  35  1.00  1.00  1.00 -1.00  0.00  0.00  0.00 -0.00 -1.00  0.00  0.00  0.00
  37  37  0.00  1.00  0.00  1.00 -0.00 -0.00  0.00  0.00  1.00  0.00  0.00  0.00
  38  38  1.00 -0.00 -0.00  0.00  1.00  0.00 -1.00 -1.00 -1.00  0.00  0.00  0.00
  39  40  0.00  0.00  1.00 -1.00 -1.00 -1.00  0.00  1.00  0.00  0.00  0.00  0.00
  40  39 -1.00 -1.00 -1.00  0.00  0.00  1.00  1.00 -0.00 -0.00  0.00  0.00  0.00
  41  41  1.00 -0.00 -0.00  0.00  0.00  1.00  0.00  1.00  0.00  0.00  0.00  0.00
  42  42  0.00  0.00  1.00  0.00  1.00  0.00  1.00 -0.00 -0.00  0.00  0.00  0.00
  43  45  0.00  0.00  1.00  1.00 -0.00 -0.00 -1.00 -1.00 -1.00  0.00  0.00  0.00
  44  46 -1.00 -1.00 -1.00  1.00 -0.00 -0.00  0.00  1.00  0.00  0.00  0.00  0.00
  45  43  0.00  1.00  0.00 -1.00 -1.00 -1.00  1.00 -0.00 -0.00  0.00  0.00  0.00
  46  44  0.00  1.00  0.00  0.00  0.00  1.00 -1.00 -1.00 -1.00  0.00  0.00  0.00
  47  47 -1.00 -1.00 -1.00  0.00  1.00  0.00  0.00  0.00  1.00  0.00  0.00  0.00
  48  48  1.00 -0.00 -0.00 -1.00 -1.00 -1.00  0.00  0.00  1.00  0.00  0.00  0.00

 DIRECT LATTICE VECTORS CARTESIAN COMPONENTS (ANGSTROM)
          X                    Y                    Z
   0.000000000000E+00   0.211949002500E+01   0.211949002500E+01
   0.211949002500E+01   0.000000000000E+00   0.211949002500E+01
   0.211949002500E+01   0.211949002500E+01   0.000000000000E+00


 CARTESIAN COORDINATES - PRIMITIVE CELL
 *******************************************************************************
 *      ATOM          X(ANGSTROM)         Y(ANGSTROM)         Z(ANGSTROM)
 *******************************************************************************
    1    12 MG    0.000000000000E+00  0.000000000000E+00  0.000000000000E+00
    2     8 O     2.119490025000E+00  2.119490025000E+00  2.119490025000E+00

 *******************************************************************************
 LOCAL ATOMIC FUNCTIONS BASIS SET
 *******************************************************************************
   ATOM   X(AU)   Y(AU)   Z(AU)  N. TYPE  EXPONENT  S COEF   P COEF   D/F/G COEF
 *******************************************************************************
   1 MG   0.000   0.000   0.000
                                  1 S  
                                         6.837E+04 2.226E-04 0.000E+00 0.000E+00
                                         9.661E+03 1.901E-03 0.000E+00 0.000E+00
                                         2.041E+03 1.104E-02 0.000E+00 0.000E+00
                                         5.296E+02 5.005E-02 0.000E+00 0.000E+00
                                         1.592E+02 1.690E-01 0.000E+00 0.000E+00
                                         5.471E+01 3.669E-01 0.000E+00 0.000E+00
                                         2.124E+01 4.008E-01 0.000E+00 0.000E+00
                                         8.791E+00 1.487E-01 0.000E+00 0.000E+00
                           2-     5 SP 
                                         1.437E+02-6.710E-03 8.070E-03 0.000E+00
                                         3.127E+01-7.927E-02 6.401E-02 0.000E+00
                                         9.661E+00-8.088E-02 2.092E-01 0.000E+00
                                         3.726E+00 2.947E-01 3.460E-01 0.000E+00
                                         1.598E+00 5.714E-01 3.731E-01 0.000E+00
                           6-     9 SP 
                                         6.880E-01 1.000E+00 1.000E+00 0.000E+00
                          10-    13 SP 
                                         2.800E-01 1.000E+00 1.000E+00 0.000E+00
   2 O    4.005   4.005   4.005
                                 14 S  
                                         8.020E+03 1.080E-03 0.000E+00 0.000E+00
                                         1.338E+03 8.040E-03 0.000E+00 0.000E+00
                                         2.554E+02 5.324E-02 0.000E+00 0.000E+00
                                         6.922E+01 1.681E-01 0.000E+00 0.000E+00
                                         2.390E+01 3.581E-01 0.000E+00 0.000E+00
                                         9.264E+00 3.855E-01 0.000E+00 0.000E+00
                                         3.851E+00 1.468E-01 0.000E+00 0.000E+00
                                         1.212E+00 7.280E-02 0.000E+00 0.000E+00
                          15-    18 SP 
                                         4.943E+01-8.830E-03 9.580E-03 0.000E+00
                                         1.047E+01-9.150E-02 6.960E-02 0.000E+00
                                         3.235E+00-4.020E-02 2.065E-01 0.000E+00
                                         1.217E+00 3.790E-01 3.470E-01 0.000E+00
                          19-    22 SP 
                                         5.000E-01 1.000E+00 1.000E+00 0.000E+00
                          23-    26 SP 
                                         1.910E-01 1.000E+00 1.000E+00 0.000E+00
 INFORMATION **** SET_MPP **** PCRYSTAL CALCULATION
 INFORMATION **** READM2 **** NEW DEFAULT: FOCK/KS MATRIX MIXING SET TO 30 %
 INFORMATION **** READM2 **** NEW DEFAULT: FULL DIRECT SCF MODE
 INFORMATION **** READM2 **** NEW DEFAULT: COULOMB BIPOLAR BUFFER SET TO 32 Mb
 INFORMATION **** READM2 **** NEW DEFAULT: EXCHANGE BIPOLAR BUFFER SET TO 32 Mb

 *******************************************************************************
 NEW DEFAULT: DFT INTEGRATION GRID INCREASED TO XLGRID
 NEW DEFAULT: DIIS ACCELERATOR ACTIVE
 USE KEYWORD NODIIS TO TURN IT OFF
 *******************************************************************************

 INFORMATION **** TOLINTEG **** COULOMB AND EXCHANGE SERIES TOLERANCES MODIFIED
 INFORMATION **** MAXCYCLE **** MAX NUMBER OF SCF CYCLES SET TO         200
 INFORMATION **** DIIS **** DIIS FOR SCF ACTIVE
 INFORMATION **** DIIS **** LEVEL SHIFTER DISABLED
 *******************************************************************************
 N. OF ATOMS PER CELL         2  COULOMB OVERLAP TOL         (T1) 10**   -7
 NUMBER OF SHELLS             8  COULOMB PENETRATION TOL     (T2) 10**   -7
 NUMBER OF AO                26  EXCHANGE OVERLAP TOL        (T3) 10**   -7
 N. OF ELECTRONS PER CELL    20  EXCHANGE PSEUDO OVP (F(G))  (T4) 10**   -7
 CORE ELECTRONS PER CELL     12  EXCHANGE PSEUDO OVP (P(G))  (T5) 10**  -14
 N. OF SYMMETRY OPERATORS    48  POLE ORDER IN MONO ZONE                  4
 *******************************************************************************
 TYPE OF CALCULATION :  RESTRICTED CLOSED SHELL
 KOHN-SHAM HAMILTONIAN

 (EXCHANGE)[CORRELATION] FUNCTIONAL:(BECKE 88)[LEE-YANG-PARR]

 NON-LOCAL WEIGHTING FACTOR (EXCHANGE) =           0.9000
 NON-LOCAL WEIGHTING FACTOR [CORRELATION] =        0.8100

 HYBRID EXCHANGE - PERCENTAGE OF FOCK EXCHANGE    20.0000

 CAPPA:IS1 12;IS2 12;IS3 12; K PTS MONK NET  72; SYMMOPS:K SPACE  48;G SPACE  48

 *******************************************************************************
 MAX NUMBER OF SCF CYCLES     200  CONVERGENCE ON DELTAP        10**-16
 WEIGHT OF F(I) IN F(I+1)      70% CONVERGENCE ON ENERGY        10**-10
 SHRINK. FACT.(MONKH.)   12 12 12  NUMBER OF K POINTS IN THE IBZ     72
 SHRINKING FACTOR(GILAT NET)   24  NUMBER OF K POINTS(GILAT NET)    413
 *******************************************************************************
 *** K POINTS COORDINATES (OBLIQUE COORDINATES IN UNITS OF IS = 12)
   1-R(  0  0  0)   2-C(  1  0  0)   3-C(  2  0  0)   4-C(  3  0  0)
   5-C(  4  0  0)   6-C(  5  0  0)   7-R(  6  0  0)   8-C(  1  1  0)
   9-C(  2  1  0)  10-C(  3  1  0)  11-C(  4  1  0)  12-C(  5  1  0)
  13-C(  6  1  0)  14-C(  7  1  0)  15-C(  8  1  0)  16-C(  9  1  0)
  17-C( 10  1  0)  18-C( 11  1  0)  19-C(  2  2  0)  20-C(  3  2  0)
  21-C(  4  2  0)  22-C(  5  2  0)  23-C(  6  2  0)  24-C(  7  2  0)
  25-C(  8  2  0)  26-C(  9  2  0)  27-C( 10  2  0)  28-C(  3  3  0)
  29-C(  4  3  0)  30-C(  5  3  0)  31-C(  6  3  0)  32-C(  7  3  0)
  33-C(  8  3  0)  34-C(  9  3  0)  35-C(  4  4  0)  36-C(  5  4  0)
  37-C(  6  4  0)  38-C(  7  4  0)  39-C(  8  4  0)  40-C(  5  5  0)
  41-C(  6  5  0)  42-C(  7  5  0)  43-R(  6  6  0)  44-C(  3  2  1)
  45-C(  4  2  1)  46-C(  5  2  1)  47-C(  6  2  1)  48-C(  7  2  1)
  49-C(  4  3  1)  50-C(  5  3  1)  51-C(  6  3  1)  52-C(  7  3  1)
  53-C(  8  3  1)  54-C(  9  3  1)  55-C( 10  3  1)  56-C(  5  4  1)
  57-C(  6  4  1)  58-C(  7  4  1)  59-C(  8  4  1)  60-C(  9  4  1)
  61-C(  6  5  1)  62-C(  7  5  1)  63-C(  8  5  1)  64-C(  7  6  1)
  65-C(  6  4  2)  66-C(  7  4  2)  67-C(  8  4  2)  68-C(  7  5  2)
  69-C(  8  5  2)  70-C(  9  5  2)  71-C(  8  6  2)  72-C(  9  6  3)

 DIRECT LATTICE VECTORS COMPON. (A.U.)     RECIP. LATTICE VECTORS COMPON. (A.U.) 
        X            Y            Z              X            Y            Z
    0.0000000    4.0052557    4.0052557     -0.7843676    0.7843676    0.7843676
    4.0052557    0.0000000    4.0052557      0.7843676   -0.7843676    0.7843676
    4.0052557    4.0052557    0.0000000      0.7843676    0.7843676   -0.7843676

 DISK SPACE FOR EIGENVECTORS (FTN 10)       95316 REALS

 SYMMETRY ADAPTION OF THE BLOCH FUNCTIONS ENABLED
 TTTTTTTTTTTTTTTTTTTTTTTTTTTTTT gordsh1     TELAPSE        0.23 TCPU        0.15

 MATRIX SIZE: P(G)   41002, F(G)    7122, P(G) IRR    1780, F(G) IRR     918
 MAX G-VECTOR INDEX FOR 1- AND 2-ELECTRON INTEGRALS 417

 TTTTTTTTTTTTTTTTTTTTTTTTTTTTTT INPUT       TELAPSE        0.23 TCPU        0.15

 NEIGHBORS OF THE NON-EQUIVALENT ATOMS

 N = NUMBER OF NEIGHBORS AT DISTANCE R
    ATOM  N     R/ANG      R/AU   NEIGHBORS (ATOM LABELS AND CELL INDICES)
   1 MG   6     2.1195     4.0053    2 O   -1 0 0    2 O    0-1 0    2 O    0 0-1
                                     2 O   -1-1 0    2 O   -1 0-1    2 O    0-1-1
   1 MG  12     2.9974     5.6643    1 MG  -1 0 0    1 MG   1 0 0    1 MG  -1 0 1
                                     1 MG   1 0-1    1 MG  -1 1 0    1 MG   1-1 0
                                     1 MG   0-1 0    1 MG   0 1 0    1 MG   0-1 1
                                     1 MG   0 1-1    1 MG   0 0-1    1 MG   0 0 1
   1 MG   8     3.6711     6.9373    2 O    0 0 0    2 O   -1-1 1    2 O   -1 1-1
                                     2 O    1-1-1    2 O   -2 0 0    2 O    0-2 0
                                     2 O    0 0-2    2 O   -1-1-1
   1 MG   6     4.2390     8.0105    1 MG  -1-1 1    1 MG   1 1-1    1 MG  -1 1-1
                                     1 MG   1-1 1    1 MG  -1 1 1    1 MG   1-1-1
   1 MG  24     4.7393     8.9560    2 O    1 0-1    2 O   -1 0 1    2 O    1-1 0
                                     2 O   -1 1 0    2 O    0 1-1    2 O    0-1 1
                                     2 O   -2 0 1    2 O   -2 1 0    2 O    1 0-2
                                     2 O    1-2 0    2 O    0-2 1    2 O    0 1-2
                                     2 O   -2-1 1    2 O   -2 1-1    2 O   -1-2 1
                                     2 O   -1 1-2    2 O    1-1-2    2 O    1-2-1
                                     2 O   -2-1 0    2 O   -2 0-1    2 O   -1-2 0
                                     2 O   -1 0-2    2 O    0-2-1    2 O    0-1-2
   1 MG  24     5.1917     9.8108    1 MG  -2 0 1    1 MG   2 0-1    1 MG  -2 1 0
                                     1 MG   2-1 0    1 MG  -2 1 1    1 MG   2-1-1
                                     1 MG  -1-1 0    1 MG   1 1 0    1 MG  -1-1 2
                                     1 MG   1 1-2    1 MG  -1 0-1    1 MG   1 0 1
                                     1 MG  -1 0 2    1 MG   1 0-2    1 MG  -1 2-1
                                     1 MG   1-2 1    1 MG  -1 2 0    1 MG   1-2 0
                                     1 MG   0-2 1    1 MG   0 2-1    1 MG   0-1-1
                                     1 MG   0 1 1    1 MG   0-1 2    1 MG   0 1-2

   2 O    6     2.1195     4.0053    1 MG   1 0 0    1 MG   0 1 0    1 MG   0 0 1
                                     1 MG   1 1 0    1 MG   1 0 1    1 MG   0 1 1
   2 O   12     2.9974     5.6643    2 O   -1 0 0    2 O    1 0 0    2 O   -1 0 1
                                     2 O    1 0-1    2 O   -1 1 0    2 O    1-1 0
                                     2 O    0-1 0    2 O    0 1 0    2 O    0-1 1
                                     2 O    0 1-1    2 O    0 0-1    2 O    0 0 1
   2 O    8     3.6711     6.9373    1 MG   0 0 0    1 MG   1 1-1    1 MG   1-1 1
                                     1 MG  -1 1 1    1 MG   2 0 0    1 MG   0 2 0
                                     1 MG   0 0 2    1 MG   1 1 1
   2 O    6     4.2390     8.0105    2 O   -1-1 1    2 O    1 1-1    2 O   -1 1-1
                                     2 O    1-1 1    2 O   -1 1 1    2 O    1-1-1
   2 O   24     4.7393     8.9560    1 MG  -1 0 1    1 MG   1 0-1    1 MG  -1 1 0
                                     1 MG   1-1 0    1 MG   0-1 1    1 MG   0 1-1
                                     1 MG   2 0-1    1 MG   2-1 0    1 MG  -1 0 2
                                     1 MG  -1 2 0    1 MG   0 2-1    1 MG   0-1 2
                                     1 MG   2 1-1    1 MG   2-1 1    1 MG   1 2-1
                                     1 MG   1-1 2    1 MG  -1 1 2    1 MG  -1 2 1
                                     1 MG   2 1 0    1 MG   2 0 1    1 MG   1 2 0
                                     1 MG   1 0 2    1 MG   0 2 1    1 MG   0 1 2
   2 O   24     5.1917     9.8108    2 O   -2 0 1    2 O    2 0-1    2 O   -2 1 0
                                     2 O    2-1 0    2 O   -2 1 1    2 O    2-1-1
                                     2 O   -1-1 0    2 O    1 1 0    2 O   -1-1 2
                                     2 O    1 1-2    2 O   -1 0-1    2 O    1 0 1
                                     2 O   -1 0 2    2 O    1 0-2    2 O   -1 2-1
                                     2 O    1-2 1    2 O   -1 2 0    2 O    1-2 0
                                     2 O    0-2 1    2 O    0 2-1    2 O    0-1-1
                                     2 O    0 1 1    2 O    0-1 2    2 O    0 1-2


 SYMMETRY ALLOWED ELASTIC DISTORTION 1
  0.5773503  0.0000000  0.0000000
  0.0000000  0.5773503  0.0000000
  0.0000000  0.0000000  0.5773503

 THERE ARE NO SYMMETRY ALLOWED DIRECTIONS
 TTTTTTTTTTTTTTTTTTTTTTTTTTTTTT SYMM        TELAPSE        0.23 TCPU        0.15
 TTTTTTTTTTTTTTTTTTTTTTTTTTTTTT INT_SCREEN  TELAPSE        0.23 TCPU        0.16

 ************************************************************************
 ************************************************************************
 * ELASTCON OPTION, W.F. PERGER, B. CIVALLERI, R. DOVESI                *
 * REFERENCES TO BE QUOTED WHEN USING THIS MODULE:                      *
 *                                                                      *
 * W.F. Perger, C. Criswell, B. Civalleri, R. Dovesi                    *
 * Ab-initio calculation of elastic constants of crystalline            *
 * systems with the CRYSTAL code                                        *
 * Comp. Phys. Comm. 180 (2009) 1753-1759                               *
 *                                                                      *
 * IT IS ASSUMED THAT THE INPUT IS FROM AN OPTIMIZED RUN                *

 CONVERGENCE CRITERION FOR ENERGY, TOLDEE =          1.0000E-08
 CONVERGENCE CRITERION FOR RMS GRADIENT, TOLDEG =    3.0000E-04
 CONVERGENCE CRITERION FOR RMS DISPLACEMENT, TOLDEX  6.2000E-04
 MAGNITUDE OF STEPSIZE FOR ADIMENSIONAL STRAINS =    1.0000E-02
 NUMBER OF POINTS (TOTAL) IN NUMERICAL 2ND DERIVATIVE=        3
 ************************************************************************
 ************************************************************************

 ************************************************************************

  Y. NOEL POST DOC. TURIN 2002

  THIS ROUTINE EVALUATES THE NON ZERO ELEMENTS OF THE ELASTIC TENSOR 

  ORDER OF THE TENSOR : 4

 |  1 A    1 B    1 B     .      .      .     |
 |         1 A    1 B     .      .      .     |
 |                1 A     .      .      .     |
 |                       1 C     .      .     |
 |                              1 C     .     |
 |                                     1 C    |

 EACH  LETTER   CORRESPONDS  TO  AN  INDEPENDENT  COMPONENT.
 INTERDEPENDENT COMPONENTS (WITH SAME LETTER) ARE RELATED BY
 THE COEFFICIENT THAT PRECEEDS EACH LETTER.

 ************************************************************************


 LIST OF ACTIVE DEFORMATIONS: 
             1
             4

 DFT PARAMETERS

     ATOM       ELECTRONS   NET CHARGE   R(ANGSTROM)
   1  12  MG     10.0000      2.0000     0.72000000
   2   8  O      10.0000     -2.0000     1.40000000

 SIZE OF GRID=       2643
 TTTTTTTTTTTTTTTTTTTTTTTTTTTTTT MAKE_GRID2  TELAPSE        0.48 TCPU        0.40
 BECKE WEIGHT FUNCTION
 RADSAFE =     2.00
 TOLERANCES - DENSITY:10**- 6; POTENTIAL:10**- 9; GRID WGT:10**-14

 RADIAL INTEGRATION  - INTERVALS (POINTS,UPPER LIMIT):            1( 99,  4.0*R)

 ANGULAR INTEGRATION - INTERVALS (ACCURACY LEVEL [N. POINTS] UPPER LIMIT):
  1(  6[ 146]   0.2)  2( 11[ 302]   0.5)  3( 14[ 590]   0.9)  4( 18[1454]   3.5)
  5( 14[ 590]9999.0)
 TTTTTTTTTTTTTTTTTTTTTTTTTTTTTT INT_CALC    TELAPSE        0.51 TCPU        0.43
 EEEEEEEEEE INT_CALC TERMINATION  DATE 02 11 2022 TIME 23:26:21.6

 *******************************************************************************
 MGO BULK                                                                        
 CRYSTAL - SCF - TYPE OF CALCULATION :  RESTRICTED CLOSED SHELL
 *******************************************************************************

 CAPPA:IS1 12;IS2 12;IS3 12; K PTS MONK NET  72; SYMMOPS:K SPACE  48;G SPACE  48

 TTTTTTTTTTTTTTTTTTTTTTTTTTTTTT SDIK        TELAPSE        0.52 TCPU        0.44

 AAAAAAAAAAAAAAAAAAAAAAAAAAAAAAAAAAAAAAAAAAAAAAAAAAAAAAAAAAAAAAAAAAAAAAAAAAAAAAA
         ATOMIC WAVEFUNCTION(S)


 NUCLEAR CHARGE 12.0  SYMMETRY SPECIES            S    P
 N. ELECTRONS   10.0  NUMBER OF PRIMITIVE GTOS   15    7
                      NUMBER OF CONTRACTED GTOS   4    3
                      NUMBER OF CLOSED SHELLS     2    1
                      OPEN SHELL OCCUPATION       0    0

  ZNUC  SCFIT    TOTAL HF ENERGY   KINETIC ENERGY   VIRIAL THEOREM ACCURACY
  12.0    19    -1.988221335E+02  1.987533635E+02 -2.000346007E+00  3.6E-06

 NUCLEAR CHARGE  8.0  SYMMETRY SPECIES            S    P
 N. ELECTRONS   10.0  NUMBER OF PRIMITIVE GTOS   14    6
                      NUMBER OF CONTRACTED GTOS   4    3
                      NUMBER OF CLOSED SHELLS     2    1
                      OPEN SHELL OCCUPATION       0    0

  ZNUC  SCFIT    TOTAL HF ENERGY   KINETIC ENERGY   VIRIAL THEOREM ACCURACY
   8.0    21    -7.433102083E+01  7.469320338E+01 -1.995151064E+00  4.9E-06

 AAAAAAAAAAAAAAAAAAAAAAAAAAAAAAAAAAAAAAAAAAAAAAAAAAAAAAAAAAAAAAAAAAAAAAAAAAAAAAA

 TTTTTTTTTTTTTTTTTTTTTTTTTTTTTT MOQGAD      TELAPSE        0.52 TCPU        0.44
 TTTTTTTTTTTTTTTTTTTTTTTTTTTTTT SHELLXN     TELAPSE        0.85 TCPU        0.77
 TTTTTTTTTTTTTTTTTTTTTTTTTTTTTT MONMO3      TELAPSE        0.85 TCPU        0.77
 NUMERICALLY INTEGRATED DENSITY     20.0000008284
 TTTTTTTTTTTTTTTTTTTTTTTTTTTTTT NUMDFT      TELAPSE        0.89 TCPU        0.81
 CYC   0 ETOT(AU) -2.758425738053E+02 DETOT -2.76E+02 tst  0.00E+00 PX  1.00E+00
 TTTTTTTTTTTTTTTTTTTTTTTTTTTTTT DIIS        TELAPSE        0.89 TCPU        0.81
 TTTTTTTTTTTTTTTTTTTTTTTTTTTTTT FDIK        TELAPSE        0.89 TCPU        0.81
 INSULATING STATE
 TOP OF VALENCE BANDS -    BAND     10; K    1; EIG -2.6840908E-01 AU
 BOTTOM OF VIRTUAL BANDS - BAND     11; K    1; EIG  3.4943473E-02 AU
 DIRECT ENERGY BAND GAP:   8.2546 eV
 TTTTTTTTTTTTTTTTTTTTTTTTTTTTTT PDIG        TELAPSE        0.90 TCPU        0.81
 TTTTTTTTTTTTTTTTTTTTTTTTTTTTTT MOQGAD      TELAPSE        0.90 TCPU        0.82
 TTTTTTTTTTTTTTTTTTTTTTTTTTTTTT SHELLXN     TELAPSE        1.23 TCPU        1.15
 TTTTTTTTTTTTTTTTTTTTTTTTTTTTTT MONMO3      TELAPSE        1.23 TCPU        1.15
 NUMERICALLY INTEGRATED DENSITY     20.0000007383
 TTTTTTTTTTTTTTTTTTTTTTTTTTTTTT NUMDFT      TELAPSE        1.27 TCPU        1.19
 CYC   1 ETOT(AU) -2.754105788697E+02 DETOT  4.32E-01 tst  0.00E+00 PX  1.00E+00
 TTTTTTTTTTTTTTTTTTTTTTTTTTTTTT DIIS        TELAPSE        1.27 TCPU        1.19
 DIIS TEST: 0.32867E+00 AT SCF   CYCLE   1 - MIX   70 %
 TTTTTTTTTTTTTTTTTTTTTTTTTTTTTT FDIK        TELAPSE        1.27 TCPU        1.19
 INSULATING STATE
 TOP OF VALENCE BANDS -    BAND     10; K    1; EIG -1.9597530E-01 AU
 BOTTOM OF VIRTUAL BANDS - BAND     11; K    1; EIG  7.3228948E-02 AU
 DIRECT ENERGY BAND GAP:   7.3254 eV
 TTTTTTTTTTTTTTTTTTTTTTTTTTTTTT PDIG        TELAPSE        1.28 TCPU        1.19
 TTTTTTTTTTTTTTTTTTTTTTTTTTTTTT MOQGAD      TELAPSE        1.28 TCPU        1.20
 TTTTTTTTTTTTTTTTTTTTTTTTTTTTTT SHELLXN     TELAPSE        1.61 TCPU        1.53
 TTTTTTTTTTTTTTTTTTTTTTTTTTTTTT MONMO3      TELAPSE        1.61 TCPU        1.53
 NUMERICALLY INTEGRATED DENSITY     20.0000007523
 TTTTTTTTTTTTTTTTTTTTTTTTTTTTTT NUMDFT      TELAPSE        1.65 TCPU        1.57
 CYC   2 ETOT(AU) -2.754460007293E+02 DETOT -3.54E-02 tst  1.38E-03 PX  7.00E-02
 TTTTTTTTTTTTTTTTTTTTTTTTTTTTTT DIIS        TELAPSE        1.65 TCPU        1.57
 DIIS TEST: 0.21483E-01 AT SCF   CYCLE   2 - DIIS ACTIVE - HISTORY:     2 CYCLES
 TTTTTTTTTTTTTTTTTTTTTTTTTTTTTT FDIK        TELAPSE        1.65 TCPU        1.57
 INSULATING STATE
 TOP OF VALENCE BANDS -    BAND     10; K    1; EIG -1.5773013E-01 AU
 BOTTOM OF VIRTUAL BANDS - BAND     11; K    1; EIG  1.0365910E-01 AU
 DIRECT ENERGY BAND GAP:   7.1128 eV
 TTTTTTTTTTTTTTTTTTTTTTTTTTTTTT PDIG        TELAPSE        1.66 TCPU        1.57
 TTTTTTTTTTTTTTTTTTTTTTTTTTTTTT MOQGAD      TELAPSE        1.66 TCPU        1.58
 TTTTTTTTTTTTTTTTTTTTTTTTTTTTTT SHELLXN     TELAPSE        1.99 TCPU        1.91
 TTTTTTTTTTTTTTTTTTTTTTTTTTTTTT MONMO3      TELAPSE        2.00 TCPU        1.91
 NUMERICALLY INTEGRATED DENSITY     20.0000007562
 TTTTTTTTTTTTTTTTTTTTTTTTTTTTTT NUMDFT      TELAPSE        2.04 TCPU        1.95
 CYC   3 ETOT(AU) -2.754483616823E+02 DETOT -2.36E-03 tst  1.38E-04 PX  2.27E-02
 TTTTTTTTTTTTTTTTTTTTTTTTTTTTTT DIIS        TELAPSE        2.04 TCPU        1.95
 DIIS TEST: 0.69054E-04 AT SCF   CYCLE   3 - DIIS ACTIVE - HISTORY:     3 CYCLES
 TTTTTTTTTTTTTTTTTTTTTTTTTTTTTT FDIK        TELAPSE        2.04 TCPU        1.95
 INSULATING STATE
 TOP OF VALENCE BANDS -    BAND     10; K    1; EIG -1.5721634E-01 AU
 BOTTOM OF VIRTUAL BANDS - BAND     11; K    1; EIG  1.0366454E-01 AU
 DIRECT ENERGY BAND GAP:   7.0989 eV
 TTTTTTTTTTTTTTTTTTTTTTTTTTTTTT PDIG        TELAPSE        2.04 TCPU        1.96
 TTTTTTTTTTTTTTTTTTTTTTTTTTTTTT MOQGAD      TELAPSE        2.05 TCPU        1.96
 TTTTTTTTTTTTTTTTTTTTTTTTTTTTTT SHELLXN     TELAPSE        2.38 TCPU        2.29
 TTTTTTTTTTTTTTTTTTTTTTTTTTTTTT MONMO3      TELAPSE        2.38 TCPU        2.29
 NUMERICALLY INTEGRATED DENSITY     20.0000007568
 TTTTTTTTTTTTTTTTTTTTTTTTTTTTTT NUMDFT      TELAPSE        2.42 TCPU        2.33
 CYC   4 ETOT(AU) -2.754483675787E+02 DETOT -5.90E-06 tst  3.04E-07 PX  8.27E-04
 TTTTTTTTTTTTTTTTTTTTTTTTTTTTTT DIIS        TELAPSE        2.42 TCPU        2.33
 DIIS TEST: 0.21124E-05 AT SCF   CYCLE   4 - DIIS ACTIVE - HISTORY:     4 CYCLES
 TTTTTTTTTTTTTTTTTTTTTTTTTTTTTT FDIK        TELAPSE        2.42 TCPU        2.33
 INSULATING STATE
 TOP OF VALENCE BANDS -    BAND     10; K    1; EIG -1.5710931E-01 AU
 BOTTOM OF VIRTUAL BANDS - BAND     11; K    1; EIG  1.0366862E-01 AU
 DIRECT ENERGY BAND GAP:   7.0961 eV
 TTTTTTTTTTTTTTTTTTTTTTTTTTTTTT PDIG        TELAPSE        2.43 TCPU        2.34
 TTTTTTTTTTTTTTTTTTTTTTTTTTTTTT MOQGAD      TELAPSE        2.43 TCPU        2.34
 TTTTTTTTTTTTTTTTTTTTTTTTTTTTTT SHELLXN     TELAPSE        2.76 TCPU        2.67
 TTTTTTTTTTTTTTTTTTTTTTTTTTTTTT MONMO3      TELAPSE        2.76 TCPU        2.67
 NUMERICALLY INTEGRATED DENSITY     20.0000007566
 TTTTTTTTTTTTTTTTTTTTTTTTTTTTTT NUMDFT      TELAPSE        2.80 TCPU        2.71
 CYC   5 ETOT(AU) -2.754483677208E+02 DETOT -1.42E-07 tst  7.67E-09 PX  1.97E-04
 TTTTTTTTTTTTTTTTTTTTTTTTTTTTTT DIIS        TELAPSE        2.80 TCPU        2.71
 DIIS TEST: 0.51034E-07 AT SCF   CYCLE   5 - DIIS ACTIVE - HISTORY:     5 CYCLES
 TTTTTTTTTTTTTTTTTTTTTTTTTTTTTT FDIK        TELAPSE        2.80 TCPU        2.71
 INSULATING STATE
 TOP OF VALENCE BANDS -    BAND     10; K    1; EIG -1.5708347E-01 AU
 BOTTOM OF VIRTUAL BANDS - BAND     11; K    1; EIG  1.0369175E-01 AU
 DIRECT ENERGY BAND GAP:   7.0961 eV
 TTTTTTTTTTTTTTTTTTTTTTTTTTTTTT PDIG        TELAPSE        2.81 TCPU        2.72
 TTTTTTTTTTTTTTTTTTTTTTTTTTTTTT MOQGAD      TELAPSE        2.81 TCPU        2.72
 TTTTTTTTTTTTTTTTTTTTTTTTTTTTTT SHELLXN     TELAPSE        3.14 TCPU        3.05
 TTTTTTTTTTTTTTTTTTTTTTTTTTTTTT MONMO3      TELAPSE        3.14 TCPU        3.05
 NUMERICALLY INTEGRATED DENSITY     20.0000007567
 TTTTTTTTTTTTTTTTTTTTTTTTTTTTTT NUMDFT      TELAPSE        3.18 TCPU        3.09
 CYC   6 ETOT(AU) -2.754483677222E+02 DETOT -1.35E-09 tst  2.02E-10 PX  3.17E-05
 TTTTTTTTTTTTTTTTTTTTTTTTTTTTTT DIIS        TELAPSE        3.18 TCPU        3.09
 DIIS TEST: 0.31656E-10 AT SCF   CYCLE   6 - DIIS ACTIVE - HISTORY:     6 CYCLES
 TTTTTTTTTTTTTTTTTTTTTTTTTTTTTT FDIK        TELAPSE        3.18 TCPU        3.10
 INSULATING STATE
 TOP OF VALENCE BANDS -    BAND     10; K    1; EIG -1.5708268E-01 AU
 BOTTOM OF VIRTUAL BANDS - BAND     11; K    1; EIG  1.0369211E-01 AU
 DIRECT ENERGY BAND GAP:   7.0960 eV
 TTTTTTTTTTTTTTTTTTTTTTTTTTTTTT PDIG        TELAPSE        3.19 TCPU        3.10
 TTTTTTTTTTTTTTTTTTTTTTTTTTTTTT MOQGAD      TELAPSE        3.19 TCPU        3.10
 TTTTTTTTTTTTTTTTTTTTTTTTTTTTTT SHELLXN     TELAPSE        3.52 TCPU        3.43
 TTTTTTTTTTTTTTTTTTTTTTTTTTTTTT MONMO3      TELAPSE        3.52 TCPU        3.43
 NUMERICALLY INTEGRATED DENSITY     20.0000007567
 TTTTTTTTTTTTTTTTTTTTTTTTTTTTTT NUMDFT      TELAPSE        3.57 TCPU        3.47
 CYC   7 ETOT(AU) -2.754483677219E+02 DETOT  2.41E-10 tst  2.39E-13 PX  6.41E-07
 TTTTTTTTTTTTTTTTTTTTTTTTTTTTTT DIIS        TELAPSE        3.57 TCPU        3.48
 DIIS TEST: 0.10566E-11 AT SCF   CYCLE   7 - DIIS ACTIVE - HISTORY:     7 CYCLES
 TTTTTTTTTTTTTTTTTTTTTTTTTTTTTT FDIK        TELAPSE        3.57 TCPU        3.48
 INSULATING STATE
 TOP OF VALENCE BANDS -    BAND     10; K    1; EIG -1.5708247E-01 AU
 BOTTOM OF VIRTUAL BANDS - BAND     11; K    1; EIG  1.0369223E-01 AU
 DIRECT ENERGY BAND GAP:   7.0960 eV
 TTTTTTTTTTTTTTTTTTTTTTTTTTTTTT PDIG        TELAPSE        3.57 TCPU        3.48
 TTTTTTTTTTTTTTTTTTTTTTTTTTTTTT MOQGAD      TELAPSE        3.57 TCPU        3.48
 TTTTTTTTTTTTTTTTTTTTTTTTTTTTTT SHELLXN     TELAPSE        3.91 TCPU        3.82
 TTTTTTTTTTTTTTTTTTTTTTTTTTTTTT MONMO3      TELAPSE        3.91 TCPU        3.82
 NUMERICALLY INTEGRATED DENSITY     20.0000007567
 TTTTTTTTTTTTTTTTTTTTTTTTTTTTTT NUMDFT      TELAPSE        3.95 TCPU        3.86
 CYC   8 ETOT(AU) -2.754483677218E+02 DETOT  7.70E-11 tst  1.04E-14 PX  1.30E-07
 TTTTTTTTTTTTTTTTTTTTTTTTTTTTTT DIIS        TELAPSE        3.95 TCPU        3.86
 DIIS TEST: 0.34235E-13 AT SCF   CYCLE   8 - DIIS ACTIVE - HISTORY:     8 CYCLES
 TTTTTTTTTTTTTTTTTTTTTTTTTTTTTT FDIK        TELAPSE        3.95 TCPU        3.86
 INSULATING STATE
 TOP OF VALENCE BANDS -    BAND     10; K    1; EIG -1.5708246E-01 AU
 BOTTOM OF VIRTUAL BANDS - BAND     11; K    1; EIG  1.0369223E-01 AU
 DIRECT ENERGY BAND GAP:   7.0960 eV
 TTTTTTTTTTTTTTTTTTTTTTTTTTTTTT PDIG        TELAPSE        3.96 TCPU        3.86
 TTTTTTTTTTTTTTTTTTTTTTTTTTTTTT MOQGAD      TELAPSE        3.96 TCPU        3.87
 TTTTTTTTTTTTTTTTTTTTTTTTTTTTTT SHELLXN     TELAPSE        4.29 TCPU        4.20
 ::: PSEUDO TOTAL   ENERGY                        -2.5508715762625E+02
 ::: VIRIAL COEFFICIENT                            1.0363329522998E+00
 TTTTTTTTTTTTTTTTTTTTTTTTTTTTTT MONMO3      TELAPSE        4.29 TCPU        4.20
 NUMERICALLY INTEGRATED DENSITY     20.0000007567
 TTTTTTTTTTTTTTTTTTTTTTTTTTTTTT NUMDFT      TELAPSE        4.33 TCPU        4.24
 CYC   9 ETOT(AU) -2.754483677218E+02 DETOT  2.27E-13 tst  1.28E-15 PX  1.30E-07

 == SCF ENDED - CONVERGENCE ON ENERGY      E(AU) -2.7544836772185E+02 CYCLES   9


 ENERGY EXPRESSION=HARTREE+FOCK EXCH*0.20000+(BECKE      EXCH)*0.80000+LYP        CORR


 TOTAL ENERGY(DFT)(AU)(  9) -2.7544836772185E+02 DE 2.3E-13 tester 1.3E-15
 TTTTTTTTTTTTTTTTTTTTTTTTTTTTTT EDFT        TELAPSE        4.33 TCPU        4.24

 *******************************************************************************
 *                             FORCE CALCULATION                               *
 *******************************************************************************

 TTTTTTTTTTTTTTTTTTTTTTTTTTTTTT NUMDFG      TELAPSE        4.86 TCPU        4.76
 INFORMATION **** EXCPOG **** EXCH. BIPO BUFFER LENGTH (WORDS) =      793512
 INFORMATION **** GENPOG **** BIPO BUFFER LENGTH (WORDS) =       50100
 TTTTTTTTTTTTTTTTTTTTTTTTTTTTTT SHELXG      TELAPSE        8.24 TCPU        8.15

 CARTESIAN FORCES IN HARTREE/BOHR (ANALYTICAL)
   ATOM                     X                   Y                   Z
   1  12             5.876336801897E-16  5.871999993207E-16  5.869758027067E-16
   2   8            -5.876336801897E-16 -5.877782404794E-16 -5.869758027067E-16

 RESULTANT FORCE     0.000000000000E+00 -5.782411586589E-19  0.000000000000E+00

 ATOMIC PART

 THERE ARE NO SYMMETRY ALLOWED DIRECTIONS

 CELL PART

 GRADIENT WITH RESPECT TO THE CELL PARAMETER IN HARTREE/BOHR
ORDER: -D/DA1X, -D/DA1Y, -D/DA1Z
       -D/DA2X, -D/DA2Y, -D/DA2Z
       -D/DA3X, -D/DA3Y, -D/DA3Z
 -0.477254076392E-05  0.477254076303E-05  0.477254076259E-05
  0.477254076348E-05 -0.477254076303E-05  0.477254076303E-05
  0.477254076303E-05  0.477254076392E-05 -0.477254076303E-05

STRESS TENSOR, IN HARTREE/BOHR^3:
ORDER: 11 12 13
       21 22 23
       31 32 33
 -0.297501496157E-06  0.276827620365E-16  0.138413942011E-16
 -0.276827620365E-16 -0.297501496170E-06  0.000000000000E+00
  0.000000000000E+00  0.138413942011E-16 -0.297501496129E-06

PRESSURE FROM THE STRESS TENSOR,
IN HARTREE/BOHR^3:  0.29750E-06
PRESSURE IN GIGAPASCAL:  0.8753E-02
CONVERSION FACTOR: 1 HARTREE/BOHR^3= 29421 GIGAPASCAL
WHEN USING VALUES FOR BOHR RADIUS AND HARTREE
FROM IUPAC WEBSITE, APRIL 2009
ENTHALPY: -2.7544832949136E+02

 SYMMETRY ALLOWED FORCES (ANALYTICAL) (DIRECTION, FORCE)

    1  6.6217155E-05
 TTTTTTTTTTTTTTTTTTTTTTTTTTTTTT TOTGRA      TELAPSE        8.27 TCPU        8.18

 VOLUME OF THE CELL:  19.042507

 DENSITY OF THE CRYSTAL =          3.4863 g/cm^3

 STRAIN MATRIX   1 :

  |   1.0   0.0   0.0 |
  |   0.0   0.0   0.0 |
  |   0.0   0.0   0.0 |
  

   DISPL        ENERGY              DELTA E

 -0.0100   -2.7544829050E+02    7.7238355800E-05
  0.0000   -2.7544836774E+02    0.0000000000E+00
  0.0100   -2.7544830694E+02    6.0802882217E-05
  ELASTIC TENSOR CONSTANTS 
 c11 =             314.63141259 GPa
 c12 =              87.40990201 GPa
 c13 =              87.40990201 GPa
 c14 =              -0.00000000 GPa
 c15 =              -0.00000000 GPa
 c16 =              -0.00000000 GPa

 STRAIN MATRIX   4 :

  |   0.0   0.0   0.0 |
  |   0.0   0.0   1.0 |
  |   0.0   1.0   0.0 |
  

   DISPL        ENERGY              DELTA E

 -0.0100   -2.7544822218E+02    1.4555249192E-04
  0.0000   -2.7544836774E+02    0.0000000000E+00
  0.0100   -2.7544822218E+02    1.4555363674E-04
  ELASTIC TENSOR CONSTANTS 
 c41 =              -0.00016887 GPa
 c42 =              -0.00028975 GPa
 c43 =              -0.00028975 GPa
 c44 =             166.62727634 GPa
 c45 =              -0.00000000 GPa
 c46 =               0.00000000 GPa

 ************************************************************************
 ************************************************************************
                           FINAL RESULTS START
 ************************************************************************
 ************************************************************************

 THE CALCULATION HAS BEEN PERFORMED WITH   3 POINTS AND
 A STEP OF     0.01000
 THIS PERMITS TO PERFORM A FITTING UP TO SECOND   ORDER

 DATA FOR MAXIMUM NUMBER OF POINTS AND ORDER OF FIT

 SYMMETRIZED ELASTIC CONSTANTS FOR CUBIC        CASE, IN GPa

 |   314.631   87.410   87.410    0.000    0.000    0.000 |
 |            314.631   87.410    0.000    0.000    0.000 |
 |                     314.631    0.000    0.000    0.000 |
 |                              166.627    0.000    0.000 |
 |                                       166.627    0.000 |
 |                                                166.627 |


 ELASTIC MODULI (COMPLIANCE TENSOR), IN TPa^-1

 |    3.6150  -0.7860  -0.7860   0.0000   0.0000   0.0000 |
 |             3.6150  -0.7860   0.0000   0.0000   0.0000 |
 |                      3.6150   0.0000   0.0000   0.0000 |
 |                               6.0014   0.0000   0.0000 |
 |                                        6.0014   0.0000 |
 |                                                 6.0014 |


 BULK MODULUS K, SHEAR MODULUS G, YOUNG MODULUS E AND
 POISSON RATIO v (ALL IN GPa) ACCORDING TO VOIGT-REUSS-HILL

    K_V     G_V     K_R     G_R     K_H     G_H    E_H      v_H

  163.15  145.42  163.15  140.42  163.15  142.92  331.86   0.161

 SEISMIC VELOCITIES BY CHRISTOFFEL EQUATION (km/s)

       WAVE VECTOR                Vp        Vs1       Vs2

 [ 0.000  0.000  1.000]          9.500     6.913     6.913
 [ 0.000  1.000  0.000]          9.500     6.913     6.913
 [ 1.000  0.000  0.000]          9.500     6.913     6.913
 [ 1.000  1.000  0.000]         10.269     6.913     5.709
 [ 1.000  0.000  1.000]         10.269     6.913     5.709
 [ 0.000  1.000  1.000]         10.269     6.913     5.709
 [ 1.000  1.000  1.000]         10.513     6.136     6.136

 ************************************************************************
 ************************************************************************
                           FINAL RESULTS END
 ************************************************************************
 ************************************************************************

       
 BULK MODULUS (GPa) 
       
 K =     163.15
       
 TTTTTTTTTTTTTTTTTTTTTTTTTTTTTT END         TELAPSE      139.06 TCPU      138.70
 EEEEEEEEEE TERMINATION  DATE 02 11 2022 TIME 23:28:40.1
NODE    0 CPU TIME =       138.696
NODE    1 CPU TIME =       138.991
NODE    2 CPU TIME =       138.454
NODE    3 CPU TIME =       138.980
NODE    4 CPU TIME =       138.664
NODE    5 CPU TIME =       138.928
NODE    6 CPU TIME =       138.646
NODE    7 CPU TIME =       138.937
NODE    8 CPU TIME =       138.602
NODE    9 CPU TIME =       138.955
NODE   10 CPU TIME =       138.867
NODE   11 CPU TIME =       138.972
NODE   12 CPU TIME =       138.555
NODE   13 CPU TIME =       138.961
NODE   14 CPU TIME =       138.459
NODE   15 CPU TIME =       138.986
NODE   16 CPU TIME =       138.782
NODE   17 CPU TIME =       138.975
NODE   18 CPU TIME =       138.436
NODE   19 CPU TIME =       138.983
    TOTAL CPU TIME =      2775.827
mer  2 nov 2022, 23.28.40, CET
totale 106400
-rw-r--r-- 1 erba users        0 nov  2 23:26 dffit3.dat
-rw-r--r-- 1 erba users        0 nov  2 23:26 diis_err1.pe00
-rw-r--r-- 1 erba users        0 nov  2 23:26 diis_err1.pe01
-rw-r--r-- 1 erba users        0 nov  2 23:26 diis_err1.pe02
-rw-r--r-- 1 erba users        0 nov  2 23:26 diis_err1.pe03
-rw-r--r-- 1 erba users        0 nov  2 23:26 diis_err1.pe04
-rw-r--r-- 1 erba users        0 nov  2 23:26 diis_err1.pe05
-rw-r--r-- 1 erba users        0 nov  2 23:26 diis_err1.pe06
-rw-r--r-- 1 erba users        0 nov  2 23:26 diis_err1.pe07
-rw-r--r-- 1 erba users        0 nov  2 23:26 diis_err1.pe08
-rw-r--r-- 1 erba users        0 nov  2 23:26 diis_err1.pe09
-rw-r--r-- 1 erba users        0 nov  2 23:26 diis_err1.pe10
-rw-r--r-- 1 erba users        0 nov  2 23:26 diis_err1.pe11
-rw-r--r-- 1 erba users        0 nov  2 23:26 diis_err1.pe12
-rw-r--r-- 1 erba users        0 nov  2 23:26 diis_err1.pe13
-rw-r--r-- 1 erba users        0 nov  2 23:26 diis_err1.pe14
-rw-r--r-- 1 erba users        0 nov  2 23:26 diis_err1.pe15
-rw-r--r-- 1 erba users     1776 nov  2 23:28 diis_err1.pe16
-rw-r--r-- 1 erba users     1776 nov  2 23:28 diis_err1.pe17
-rw-r--r-- 1 erba users     1776 nov  2 23:28 diis_err1.pe18
-rw-r--r-- 1 erba users     3120 nov  2 23:28 diis_err1.pe19
-rw-r--r-- 1 erba users        0 nov  2 23:26 diis_err2.pe00
-rw-r--r-- 1 erba users        0 nov  2 23:26 diis_err2.pe01
-rw-r--r-- 1 erba users        0 nov  2 23:26 diis_err2.pe02
-rw-r--r-- 1 erba users        0 nov  2 23:26 diis_err2.pe03
-rw-r--r-- 1 erba users        0 nov  2 23:26 diis_err2.pe04
-rw-r--r-- 1 erba users        0 nov  2 23:26 diis_err2.pe05
-rw-r--r-- 1 erba users        0 nov  2 23:26 diis_err2.pe06
-rw-r--r-- 1 erba users        0 nov  2 23:26 diis_err2.pe07
-rw-r--r-- 1 erba users        0 nov  2 23:26 diis_err2.pe08
-rw-r--r-- 1 erba users        0 nov  2 23:26 diis_err2.pe09
-rw-r--r-- 1 erba users        0 nov  2 23:26 diis_err2.pe10
-rw-r--r-- 1 erba users        0 nov  2 23:26 diis_err2.pe11
-rw-r--r-- 1 erba users        0 nov  2 23:26 diis_err2.pe12
-rw-r--r-- 1 erba users        0 nov  2 23:26 diis_err2.pe13
-rw-r--r-- 1 erba users        0 nov  2 23:26 diis_err2.pe14
-rw-r--r-- 1 erba users        0 nov  2 23:26 diis_err2.pe15
-rw-r--r-- 1 erba users      296 nov  2 23:28 diis_err2.pe16
-rw-r--r-- 1 erba users      296 nov  2 23:28 diis_err2.pe17
-rw-r--r-- 1 erba users      296 nov  2 23:28 diis_err2.pe18
-rw-r--r-- 1 erba users      520 nov  2 23:28 diis_err2.pe19
-rw-r--r-- 1 erba users    33008 nov  2 23:28 diis_Fg
-rw-r--r-- 1 erba users        0 nov  2 23:26 diis_Sk.pe00
-rw-r--r-- 1 erba users        0 nov  2 23:26 diis_Sk.pe01
-rw-r--r-- 1 erba users        0 nov  2 23:26 diis_Sk.pe02
-rw-r--r-- 1 erba users        0 nov  2 23:26 diis_Sk.pe03
-rw-r--r-- 1 erba users        0 nov  2 23:26 diis_Sk.pe04
-rw-r--r-- 1 erba users        0 nov  2 23:26 diis_Sk.pe05
-rw-r--r-- 1 erba users        0 nov  2 23:26 diis_Sk.pe06
-rw-r--r-- 1 erba users        0 nov  2 23:26 diis_Sk.pe07
-rw-r--r-- 1 erba users        0 nov  2 23:26 diis_Sk.pe08
-rw-r--r-- 1 erba users        0 nov  2 23:26 diis_Sk.pe09
-rw-r--r-- 1 erba users        0 nov  2 23:26 diis_Sk.pe10
-rw-r--r-- 1 erba users        0 nov  2 23:26 diis_Sk.pe11
-rw-r--r-- 1 erba users        0 nov  2 23:26 diis_Sk.pe12
-rw-r--r-- 1 erba users        0 nov  2 23:26 diis_Sk.pe13
-rw-r--r-- 1 erba users        0 nov  2 23:26 diis_Sk.pe14
-rw-r--r-- 1 erba users        0 nov  2 23:26 diis_Sk.pe15
-rw-r--r-- 1 erba users        0 nov  2 23:26 diis_Sk.pe16
-rw-r--r-- 1 erba users        0 nov  2 23:26 diis_Sk.pe17
-rw-r--r-- 1 erba users        0 nov  2 23:26 diis_Sk.pe18
-rw-r--r-- 1 erba users        0 nov  2 23:26 diis_Sk.pe19
-rw-r--r-- 1 erba users     2281 nov  2 23:28 ELASINFO.DAT
-rw-r--r-- 1 erba users     1332 nov  2 23:28 FORCES.DAT
-rw-r--r-- 1 erba users    91960 nov  2 23:28 fort.10.pe00
-rw-r--r-- 1 erba users   124424 nov  2 23:28 fort.10.pe01
-rw-r--r-- 1 erba users   123888 nov  2 23:28 fort.10.pe02
-rw-r--r-- 1 erba users   116272 nov  2 23:28 fort.10.pe03
-rw-r--r-- 1 erba users   107736 nov  2 23:28 fort.10.pe04
-rw-r--r-- 1 erba users   144280 nov  2 23:28 fort.10.pe05
-rw-r--r-- 1 erba users   111656 nov  2 23:28 fort.10.pe06
-rw-r--r-- 1 erba users   148328 nov  2 23:28 fort.10.pe07
-rw-r--r-- 1 erba users   138816 nov  2 23:28 fort.10.pe08
-rw-r--r-- 1 erba users   153728 nov  2 23:28 fort.10.pe09
-rw-r--r-- 1 erba users   106056 nov  2 23:28 fort.10.pe10
-rw-r--r-- 1 erba users   137736 nov  2 23:28 fort.10.pe11
-rw-r--r-- 1 erba users    92600 nov  2 23:28 fort.10.pe12
-rw-r--r-- 1 erba users   113592 nov  2 23:28 fort.10.pe13
-rw-r--r-- 1 erba users   108968 nov  2 23:28 fort.10.pe14
-rw-r--r-- 1 erba users   147048 nov  2 23:28 fort.10.pe15
-rw-r--r-- 1 erba users   149064 nov  2 23:28 fort.10.pe16
-rw-r--r-- 1 erba users   164992 nov  2 23:28 fort.10.pe17
-rw-r--r-- 1 erba users   101440 nov  2 23:28 fort.10.pe18
-rw-r--r-- 1 erba users   119392 nov  2 23:28 fort.10.pe19
-rw-r--r-- 1 erba users    16504 nov  2 23:28 fort.11.pe00
-rw-r--r-- 1 erba users    16504 nov  2 23:28 fort.11.pe01
-rw-r--r-- 1 erba users    16504 nov  2 23:28 fort.11.pe02
-rw-r--r-- 1 erba users    16504 nov  2 23:28 fort.11.pe03
-rw-r--r-- 1 erba users    16504 nov  2 23:28 fort.11.pe04
-rw-r--r-- 1 erba users    16504 nov  2 23:28 fort.11.pe05
-rw-r--r-- 1 erba users    16504 nov  2 23:28 fort.11.pe06
-rw-r--r-- 1 erba users    16504 nov  2 23:28 fort.11.pe07
-rw-r--r-- 1 erba users    16504 nov  2 23:28 fort.11.pe08
-rw-r--r-- 1 erba users    16504 nov  2 23:28 fort.11.pe09
-rw-r--r-- 1 erba users    16504 nov  2 23:28 fort.11.pe10
-rw-r--r-- 1 erba users    16504 nov  2 23:28 fort.11.pe11
-rw-r--r-- 1 erba users    16504 nov  2 23:28 fort.11.pe12
-rw-r--r-- 1 erba users    16504 nov  2 23:28 fort.11.pe13
-rw-r--r-- 1 erba users    16504 nov  2 23:28 fort.11.pe14
-rw-r--r-- 1 erba users    16504 nov  2 23:28 fort.11.pe15
-rw-r--r-- 1 erba users    16504 nov  2 23:28 fort.11.pe16
-rw-r--r-- 1 erba users    16504 nov  2 23:28 fort.11.pe17
-rw-r--r-- 1 erba users    16504 nov  2 23:28 fort.11.pe18
-rw-r--r-- 1 erba users    16504 nov  2 23:28 fort.11.pe19
-rw-r--r-- 1 erba users   177416 nov  2 23:28 fort.12
-rw-r--r-- 1 erba users   328024 nov  2 23:28 fort.13
-rw-r--r-- 1 erba users        0 nov  2 23:26 fort.17.pe01
-rw-r--r-- 1 erba users        0 nov  2 23:26 fort.17.pe02
-rw-r--r-- 1 erba users        0 nov  2 23:26 fort.17.pe03
-rw-r--r-- 1 erba users        0 nov  2 23:26 fort.17.pe04
-rw-r--r-- 1 erba users        0 nov  2 23:26 fort.17.pe05
-rw-r--r-- 1 erba users        0 nov  2 23:26 fort.17.pe06
-rw-r--r-- 1 erba users        0 nov  2 23:26 fort.17.pe07
-rw-r--r-- 1 erba users        0 nov  2 23:26 fort.17.pe08
-rw-r--r-- 1 erba users        0 nov  2 23:26 fort.17.pe09
-rw-r--r-- 1 erba users        0 nov  2 23:26 fort.17.pe10
-rw-r--r-- 1 erba users        0 nov  2 23:26 fort.17.pe11
-rw-r--r-- 1 erba users        0 nov  2 23:26 fort.17.pe12
-rw-r--r-- 1 erba users        0 nov  2 23:26 fort.17.pe13
-rw-r--r-- 1 erba users        0 nov  2 23:26 fort.17.pe14
-rw-r--r-- 1 erba users        0 nov  2 23:26 fort.17.pe15
-rw-r--r-- 1 erba users        0 nov  2 23:26 fort.17.pe16
-rw-r--r-- 1 erba users        0 nov  2 23:26 fort.17.pe17
-rw-r--r-- 1 erba users        0 nov  2 23:26 fort.17.pe18
-rw-r--r-- 1 erba users        0 nov  2 23:26 fort.17.pe19
-rw-r--r-- 1 erba users        0 nov  2 23:26 fort.18.pe00
-rw-r--r-- 1 erba users        0 nov  2 23:26 fort.18.pe01
-rw-r--r-- 1 erba users        0 nov  2 23:26 fort.18.pe02
-rw-r--r-- 1 erba users        0 nov  2 23:26 fort.18.pe03
-rw-r--r-- 1 erba users        0 nov  2 23:26 fort.18.pe04
-rw-r--r-- 1 erba users        0 nov  2 23:26 fort.18.pe05
-rw-r--r-- 1 erba users        0 nov  2 23:26 fort.18.pe06
-rw-r--r-- 1 erba users        0 nov  2 23:26 fort.18.pe07
-rw-r--r-- 1 erba users        0 nov  2 23:26 fort.18.pe08
-rw-r--r-- 1 erba users        0 nov  2 23:26 fort.18.pe09
-rw-r--r-- 1 erba users        0 nov  2 23:26 fort.18.pe10
-rw-r--r-- 1 erba users        0 nov  2 23:26 fort.18.pe11
-rw-r--r-- 1 erba users        0 nov  2 23:26 fort.18.pe12
-rw-r--r-- 1 erba users        0 nov  2 23:26 fort.18.pe13
-rw-r--r-- 1 erba users        0 nov  2 23:26 fort.18.pe14
-rw-r--r-- 1 erba users        0 nov  2 23:26 fort.18.pe15
-rw-r--r-- 1 erba users        0 nov  2 23:26 fort.18.pe16
-rw-r--r-- 1 erba users        0 nov  2 23:26 fort.18.pe17
-rw-r--r-- 1 erba users        0 nov  2 23:26 fort.18.pe18
-rw-r--r-- 1 erba users        0 nov  2 23:26 fort.18.pe19
-rw-r--r-- 1 erba users        0 nov  2 23:26 fort.19.pe00
-rw-r--r-- 1 erba users        0 nov  2 23:26 fort.19.pe01
-rw-r--r-- 1 erba users        0 nov  2 23:26 fort.19.pe02
-rw-r--r-- 1 erba users        0 nov  2 23:26 fort.19.pe03
-rw-r--r-- 1 erba users        0 nov  2 23:26 fort.19.pe04
-rw-r--r-- 1 erba users        0 nov  2 23:26 fort.19.pe05
-rw-r--r-- 1 erba users        0 nov  2 23:26 fort.19.pe06
-rw-r--r-- 1 erba users        0 nov  2 23:26 fort.19.pe07
-rw-r--r-- 1 erba users        0 nov  2 23:26 fort.19.pe08
-rw-r--r-- 1 erba users        0 nov  2 23:26 fort.19.pe09
-rw-r--r-- 1 erba users        0 nov  2 23:26 fort.19.pe10
-rw-r--r-- 1 erba users        0 nov  2 23:26 fort.19.pe11
-rw-r--r-- 1 erba users        0 nov  2 23:26 fort.19.pe12
-rw-r--r-- 1 erba users        0 nov  2 23:26 fort.19.pe13
-rw-r--r-- 1 erba users        0 nov  2 23:26 fort.19.pe14
-rw-r--r-- 1 erba users        0 nov  2 23:26 fort.19.pe15
-rw-r--r-- 1 erba users        0 nov  2 23:26 fort.19.pe16
-rw-r--r-- 1 erba users        0 nov  2 23:26 fort.19.pe17
-rw-r--r-- 1 erba users        0 nov  2 23:26 fort.19.pe18
-rw-r--r-- 1 erba users        0 nov  2 23:26 fort.19.pe19
-rw-r--r-- 1 erba users        0 nov  2 23:26 fort.1.pe00
-rw-r--r-- 1 erba users        0 nov  2 23:26 fort.1.pe01
-rw-r--r-- 1 erba users        0 nov  2 23:26 fort.1.pe02
-rw-r--r-- 1 erba users        0 nov  2 23:26 fort.1.pe03
-rw-r--r-- 1 erba users        0 nov  2 23:26 fort.1.pe04
-rw-r--r-- 1 erba users        0 nov  2 23:26 fort.1.pe05
-rw-r--r-- 1 erba users        0 nov  2 23:26 fort.1.pe06
-rw-r--r-- 1 erba users        0 nov  2 23:26 fort.1.pe07
-rw-r--r-- 1 erba users        0 nov  2 23:26 fort.1.pe08
-rw-r--r-- 1 erba users        0 nov  2 23:26 fort.1.pe09
-rw-r--r-- 1 erba users        0 nov  2 23:26 fort.1.pe10
-rw-r--r-- 1 erba users        0 nov  2 23:26 fort.1.pe11
-rw-r--r-- 1 erba users        0 nov  2 23:26 fort.1.pe12
-rw-r--r-- 1 erba users        0 nov  2 23:26 fort.1.pe13
-rw-r--r-- 1 erba users        0 nov  2 23:26 fort.1.pe14
-rw-r--r-- 1 erba users        0 nov  2 23:26 fort.1.pe15
-rw-r--r-- 1 erba users        0 nov  2 23:26 fort.1.pe16
-rw-r--r-- 1 erba users        0 nov  2 23:26 fort.1.pe17
-rw-r--r-- 1 erba users        0 nov  2 23:26 fort.1.pe18
-rw-r--r-- 1 erba users        0 nov  2 23:26 fort.1.pe19
-rw-r--r-- 1 erba users   326932 nov  2 23:28 fort.20
-rw-r--r-- 1 erba users    87376 nov  2 23:28 fort.21
-rw-r--r-- 1 erba users        0 nov  2 23:26 fort.28.pe00
-rw-r--r-- 1 erba users        0 nov  2 23:26 fort.28.pe01
-rw-r--r-- 1 erba users        0 nov  2 23:26 fort.28.pe02
-rw-r--r-- 1 erba users        0 nov  2 23:26 fort.28.pe03
-rw-r--r-- 1 erba users        0 nov  2 23:26 fort.28.pe04
-rw-r--r-- 1 erba users        0 nov  2 23:26 fort.28.pe05
-rw-r--r-- 1 erba users        0 nov  2 23:26 fort.28.pe06
-rw-r--r-- 1 erba users        0 nov  2 23:26 fort.28.pe07
-rw-r--r-- 1 erba users        0 nov  2 23:26 fort.28.pe08
-rw-r--r-- 1 erba users        0 nov  2 23:26 fort.28.pe09
-rw-r--r-- 1 erba users        0 nov  2 23:26 fort.28.pe10
-rw-r--r-- 1 erba users        0 nov  2 23:26 fort.28.pe11
-rw-r--r-- 1 erba users        0 nov  2 23:26 fort.28.pe12
-rw-r--r-- 1 erba users        0 nov  2 23:26 fort.28.pe13
-rw-r--r-- 1 erba users        0 nov  2 23:26 fort.28.pe14
-rw-r--r-- 1 erba users        0 nov  2 23:26 fort.28.pe15
-rw-r--r-- 1 erba users        0 nov  2 23:26 fort.28.pe16
-rw-r--r-- 1 erba users        0 nov  2 23:26 fort.28.pe17
-rw-r--r-- 1 erba users        0 nov  2 23:26 fort.28.pe18
-rw-r--r-- 1 erba users        0 nov  2 23:26 fort.28.pe19
-rw-r--r-- 1 erba users        0 nov  2 23:26 fort.29.pe00
-rw-r--r-- 1 erba users        0 nov  2 23:26 fort.29.pe01
-rw-r--r-- 1 erba users        0 nov  2 23:26 fort.29.pe02
-rw-r--r-- 1 erba users        0 nov  2 23:26 fort.29.pe03
-rw-r--r-- 1 erba users        0 nov  2 23:26 fort.29.pe04
-rw-r--r-- 1 erba users        0 nov  2 23:26 fort.29.pe05
-rw-r--r-- 1 erba users        0 nov  2 23:26 fort.29.pe06
-rw-r--r-- 1 erba users        0 nov  2 23:26 fort.29.pe07
-rw-r--r-- 1 erba users        0 nov  2 23:26 fort.29.pe08
-rw-r--r-- 1 erba users        0 nov  2 23:26 fort.29.pe09
-rw-r--r-- 1 erba users        0 nov  2 23:26 fort.29.pe10
-rw-r--r-- 1 erba users        0 nov  2 23:26 fort.29.pe11
-rw-r--r-- 1 erba users        0 nov  2 23:26 fort.29.pe12
-rw-r--r-- 1 erba users        0 nov  2 23:26 fort.29.pe13
-rw-r--r-- 1 erba users        0 nov  2 23:26 fort.29.pe14
-rw-r--r-- 1 erba users        0 nov  2 23:26 fort.29.pe15
-rw-r--r-- 1 erba users        0 nov  2 23:26 fort.29.pe16
-rw-r--r-- 1 erba users        0 nov  2 23:26 fort.29.pe17
-rw-r--r-- 1 erba users        0 nov  2 23:26 fort.29.pe18
-rw-r--r-- 1 erba users        0 nov  2 23:26 fort.29.pe19
-rw-r--r-- 1 erba users     2315 nov  2 23:28 fort.33
-rw-r--r-- 1 erba users     2342 nov  2 23:28 fort.34
-rw-r--r-- 1 erba users        0 nov  2 23:26 fort.38.pe00
-rw-r--r-- 1 erba users        0 nov  2 23:26 fort.38.pe01
-rw-r--r-- 1 erba users        0 nov  2 23:26 fort.38.pe02
-rw-r--r-- 1 erba users        0 nov  2 23:26 fort.38.pe03
-rw-r--r-- 1 erba users        0 nov  2 23:26 fort.38.pe04
-rw-r--r-- 1 erba users        0 nov  2 23:26 fort.38.pe05
-rw-r--r-- 1 erba users        0 nov  2 23:26 fort.38.pe06
-rw-r--r-- 1 erba users        0 nov  2 23:26 fort.38.pe07
-rw-r--r-- 1 erba users        0 nov  2 23:26 fort.38.pe08
-rw-r--r-- 1 erba users        0 nov  2 23:26 fort.38.pe09
-rw-r--r-- 1 erba users        0 nov  2 23:26 fort.38.pe10
-rw-r--r-- 1 erba users        0 nov  2 23:26 fort.38.pe11
-rw-r--r-- 1 erba users        0 nov  2 23:26 fort.38.pe12
-rw-r--r-- 1 erba users        0 nov  2 23:26 fort.38.pe13
-rw-r--r-- 1 erba users        0 nov  2 23:26 fort.38.pe14
-rw-r--r-- 1 erba users        0 nov  2 23:26 fort.38.pe15
-rw-r--r-- 1 erba users        0 nov  2 23:26 fort.38.pe16
-rw-r--r-- 1 erba users        0 nov  2 23:26 fort.38.pe17
-rw-r--r-- 1 erba users        0 nov  2 23:26 fort.38.pe18
-rw-r--r-- 1 erba users        0 nov  2 23:26 fort.38.pe19
-rw-r--r-- 1 erba users        0 nov  2 23:26 fort.3.pe00
-rw-r--r-- 1 erba users        0 nov  2 23:26 fort.3.pe01
-rw-r--r-- 1 erba users        0 nov  2 23:26 fort.3.pe02
-rw-r--r-- 1 erba users        0 nov  2 23:26 fort.3.pe03
-rw-r--r-- 1 erba users        0 nov  2 23:26 fort.3.pe04
-rw-r--r-- 1 erba users        0 nov  2 23:26 fort.3.pe05
-rw-r--r-- 1 erba users        0 nov  2 23:26 fort.3.pe06
-rw-r--r-- 1 erba users        0 nov  2 23:26 fort.3.pe07
-rw-r--r-- 1 erba users        0 nov  2 23:26 fort.3.pe08
-rw-r--r-- 1 erba users        0 nov  2 23:26 fort.3.pe09
-rw-r--r-- 1 erba users        0 nov  2 23:26 fort.3.pe10
-rw-r--r-- 1 erba users        0 nov  2 23:26 fort.3.pe11
-rw-r--r-- 1 erba users        0 nov  2 23:26 fort.3.pe12
-rw-r--r-- 1 erba users        0 nov  2 23:26 fort.3.pe13
-rw-r--r-- 1 erba users        0 nov  2 23:26 fort.3.pe14
-rw-r--r-- 1 erba users        0 nov  2 23:26 fort.3.pe15
-rw-r--r-- 1 erba users        0 nov  2 23:26 fort.3.pe16
-rw-r--r-- 1 erba users        0 nov  2 23:26 fort.3.pe17
-rw-r--r-- 1 erba users        0 nov  2 23:26 fort.3.pe18
-rw-r--r-- 1 erba users        0 nov  2 23:26 fort.3.pe19
-rw-r--r-- 1 erba users        0 nov  2 23:26 fort.40.pe00
-rw-r--r-- 1 erba users        0 nov  2 23:26 fort.40.pe01
-rw-r--r-- 1 erba users        0 nov  2 23:26 fort.40.pe02
-rw-r--r-- 1 erba users        0 nov  2 23:26 fort.40.pe03
-rw-r--r-- 1 erba users        0 nov  2 23:26 fort.40.pe04
-rw-r--r-- 1 erba users        0 nov  2 23:26 fort.40.pe05
-rw-r--r-- 1 erba users        0 nov  2 23:26 fort.40.pe06
-rw-r--r-- 1 erba users        0 nov  2 23:26 fort.40.pe07
-rw-r--r-- 1 erba users        0 nov  2 23:26 fort.40.pe08
-rw-r--r-- 1 erba users        0 nov  2 23:26 fort.40.pe09
-rw-r--r-- 1 erba users        0 nov  2 23:26 fort.40.pe10
-rw-r--r-- 1 erba users        0 nov  2 23:26 fort.40.pe11
-rw-r--r-- 1 erba users        0 nov  2 23:26 fort.40.pe12
-rw-r--r-- 1 erba users        0 nov  2 23:26 fort.40.pe13
-rw-r--r-- 1 erba users        0 nov  2 23:26 fort.40.pe14
-rw-r--r-- 1 erba users        0 nov  2 23:26 fort.40.pe15
-rw-r--r-- 1 erba users        0 nov  2 23:26 fort.40.pe16
-rw-r--r-- 1 erba users        0 nov  2 23:26 fort.40.pe17
-rw-r--r-- 1 erba users        0 nov  2 23:26 fort.40.pe18
-rw-r--r-- 1 erba users        0 nov  2 23:26 fort.40.pe19
-rw-r--r-- 1 erba users    15952 nov  2 23:27 fort.61.pe00
-rw-r--r-- 1 erba users    14384 nov  2 23:27 fort.61.pe01
-rw-r--r-- 1 erba users    15136 nov  2 23:27 fort.61.pe02
-rw-r--r-- 1 erba users    15568 nov  2 23:27 fort.61.pe03
-rw-r--r-- 1 erba users    16608 nov  2 23:27 fort.61.pe04
-rw-r--r-- 1 erba users    14832 nov  2 23:27 fort.61.pe05
-rw-r--r-- 1 erba users    14464 nov  2 23:27 fort.61.pe06
-rw-r--r-- 1 erba users    13504 nov  2 23:27 fort.61.pe07
-rw-r--r-- 1 erba users    14240 nov  2 23:27 fort.61.pe08
-rw-r--r-- 1 erba users    14096 nov  2 23:27 fort.61.pe09
-rw-r--r-- 1 erba users    12608 nov  2 23:27 fort.61.pe10
-rw-r--r-- 1 erba users    14256 nov  2 23:27 fort.61.pe11
-rw-r--r-- 1 erba users    14016 nov  2 23:27 fort.61.pe12
-rw-r--r-- 1 erba users    13280 nov  2 23:27 fort.61.pe13
-rw-r--r-- 1 erba users    14832 nov  2 23:27 fort.61.pe14
-rw-r--r-- 1 erba users    14096 nov  2 23:27 fort.61.pe15
-rw-r--r-- 1 erba users    14832 nov  2 23:27 fort.61.pe16
-rw-r--r-- 1 erba users    14976 nov  2 23:27 fort.61.pe17
-rw-r--r-- 1 erba users    15280 nov  2 23:27 fort.61.pe18
-rw-r--r-- 1 erba users    14912 nov  2 23:27 fort.61.pe19
-rw-r--r-- 1 erba users     5712 nov  2 23:27 fort.62.pe00
-rw-r--r-- 1 erba users     5568 nov  2 23:27 fort.62.pe01
-rw-r--r-- 1 erba users     4288 nov  2 23:27 fort.62.pe02
-rw-r--r-- 1 erba users     4512 nov  2 23:27 fort.62.pe03
-rw-r--r-- 1 erba users     5600 nov  2 23:27 fort.62.pe04
-rw-r--r-- 1 erba users     4864 nov  2 23:27 fort.62.pe05
-rw-r--r-- 1 erba users     4544 nov  2 23:27 fort.62.pe06
-rw-r--r-- 1 erba users     6080 nov  2 23:27 fort.62.pe07
-rw-r--r-- 1 erba users     3408 nov  2 23:27 fort.62.pe08
-rw-r--r-- 1 erba users     4048 nov  2 23:27 fort.62.pe09
-rw-r--r-- 1 erba users     4336 nov  2 23:27 fort.62.pe10
-rw-r--r-- 1 erba users     5392 nov  2 23:27 fort.62.pe11
-rw-r--r-- 1 erba users     5136 nov  2 23:27 fort.62.pe12
-rw-r--r-- 1 erba users     7120 nov  2 23:27 fort.62.pe13
-rw-r--r-- 1 erba users     4896 nov  2 23:27 fort.62.pe14
-rw-r--r-- 1 erba users     5184 nov  2 23:27 fort.62.pe15
-rw-r--r-- 1 erba users     3456 nov  2 23:27 fort.62.pe16
-rw-r--r-- 1 erba users     3568 nov  2 23:27 fort.62.pe17
-rw-r--r-- 1 erba users     4368 nov  2 23:27 fort.62.pe18
-rw-r--r-- 1 erba users     6000 nov  2 23:27 fort.62.pe19
-rw-r--r-- 1 erba users   164465 nov  2 23:28 fort.65
-rw-r--r-- 1 erba users        0 nov  2 23:26 fort.82.pe00
-rw-r--r-- 1 erba users        0 nov  2 23:26 fort.82.pe01
-rw-r--r-- 1 erba users        0 nov  2 23:26 fort.82.pe02
-rw-r--r-- 1 erba users        0 nov  2 23:26 fort.82.pe03
-rw-r--r-- 1 erba users        0 nov  2 23:26 fort.82.pe04
-rw-r--r-- 1 erba users        0 nov  2 23:26 fort.82.pe05
-rw-r--r-- 1 erba users        0 nov  2 23:26 fort.82.pe06
-rw-r--r-- 1 erba users        0 nov  2 23:26 fort.82.pe07
-rw-r--r-- 1 erba users        0 nov  2 23:26 fort.82.pe08
-rw-r--r-- 1 erba users        0 nov  2 23:26 fort.82.pe09
-rw-r--r-- 1 erba users        0 nov  2 23:26 fort.82.pe10
-rw-r--r-- 1 erba users        0 nov  2 23:26 fort.82.pe11
-rw-r--r-- 1 erba users        0 nov  2 23:26 fort.82.pe12
-rw-r--r-- 1 erba users        0 nov  2 23:26 fort.82.pe13
-rw-r--r-- 1 erba users        0 nov  2 23:26 fort.82.pe14
-rw-r--r-- 1 erba users        0 nov  2 23:26 fort.82.pe15
-rw-r--r-- 1 erba users        0 nov  2 23:26 fort.82.pe16
-rw-r--r-- 1 erba users        0 nov  2 23:26 fort.82.pe17
-rw-r--r-- 1 erba users        0 nov  2 23:26 fort.82.pe18
-rw-r--r-- 1 erba users        0 nov  2 23:26 fort.82.pe19
-rw-r--r-- 1 erba users        0 nov  2 23:26 fort.83.pe00
-rw-r--r-- 1 erba users        0 nov  2 23:26 fort.83.pe01
-rw-r--r-- 1 erba users        0 nov  2 23:26 fort.83.pe02
-rw-r--r-- 1 erba users        0 nov  2 23:26 fort.83.pe03
-rw-r--r-- 1 erba users        0 nov  2 23:26 fort.83.pe04
-rw-r--r-- 1 erba users        0 nov  2 23:26 fort.83.pe05
-rw-r--r-- 1 erba users        0 nov  2 23:26 fort.83.pe06
-rw-r--r-- 1 erba users        0 nov  2 23:26 fort.83.pe07
-rw-r--r-- 1 erba users        0 nov  2 23:26 fort.83.pe08
-rw-r--r-- 1 erba users        0 nov  2 23:26 fort.83.pe09
-rw-r--r-- 1 erba users        0 nov  2 23:26 fort.83.pe10
-rw-r--r-- 1 erba users        0 nov  2 23:26 fort.83.pe11
-rw-r--r-- 1 erba users        0 nov  2 23:26 fort.83.pe12
-rw-r--r-- 1 erba users        0 nov  2 23:26 fort.83.pe13
-rw-r--r-- 1 erba users        0 nov  2 23:26 fort.83.pe14
-rw-r--r-- 1 erba users        0 nov  2 23:26 fort.83.pe15
-rw-r--r-- 1 erba users        0 nov  2 23:26 fort.83.pe16
-rw-r--r-- 1 erba users        0 nov  2 23:26 fort.83.pe17
-rw-r--r-- 1 erba users        0 nov  2 23:26 fort.83.pe18
-rw-r--r-- 1 erba users        0 nov  2 23:26 fort.83.pe19
-rw-r--r-- 1 erba users    91960 nov  2 23:28 fort.8.pe00
-rw-r--r-- 1 erba users   124424 nov  2 23:28 fort.8.pe01
-rw-r--r-- 1 erba users   123888 nov  2 23:28 fort.8.pe02
-rw-r--r-- 1 erba users   116272 nov  2 23:28 fort.8.pe03
-rw-r--r-- 1 erba users   107736 nov  2 23:28 fort.8.pe04
-rw-r--r-- 1 erba users   144280 nov  2 23:28 fort.8.pe05
-rw-r--r-- 1 erba users   111656 nov  2 23:28 fort.8.pe06
-rw-r--r-- 1 erba users   148328 nov  2 23:28 fort.8.pe07
-rw-r--r-- 1 erba users   138816 nov  2 23:28 fort.8.pe08
-rw-r--r-- 1 erba users   153728 nov  2 23:28 fort.8.pe09
-rw-r--r-- 1 erba users   106056 nov  2 23:28 fort.8.pe10
-rw-r--r-- 1 erba users   137736 nov  2 23:28 fort.8.pe11
-rw-r--r-- 1 erba users    92600 nov  2 23:28 fort.8.pe12
-rw-r--r-- 1 erba users   113592 nov  2 23:28 fort.8.pe13
-rw-r--r-- 1 erba users   108968 nov  2 23:28 fort.8.pe14
-rw-r--r-- 1 erba users   147048 nov  2 23:28 fort.8.pe15
-rw-r--r-- 1 erba users   149064 nov  2 23:28 fort.8.pe16
-rw-r--r-- 1 erba users   164992 nov  2 23:28 fort.8.pe17
-rw-r--r-- 1 erba users   101440 nov  2 23:28 fort.8.pe18
-rw-r--r-- 1 erba users   119392 nov  2 23:28 fort.8.pe19
-rw-r--r-- 1 erba users   125652 nov  2 23:26 fort.9
-rw-r--r-- 1 erba users    41888 nov  2 23:28 fort.95.pe00
-rw-r--r-- 1 erba users    41888 nov  2 23:28 fort.95.pe01
-rw-r--r-- 1 erba users    41888 nov  2 23:28 fort.95.pe02
-rw-r--r-- 1 erba users    41888 nov  2 23:28 fort.95.pe03
-rw-r--r-- 1 erba users    41888 nov  2 23:28 fort.95.pe04
-rw-r--r-- 1 erba users    41888 nov  2 23:28 fort.95.pe05
-rw-r--r-- 1 erba users    41888 nov  2 23:28 fort.95.pe06
-rw-r--r-- 1 erba users    41888 nov  2 23:28 fort.95.pe07
-rw-r--r-- 1 erba users    41888 nov  2 23:28 fort.95.pe08
-rw-r--r-- 1 erba users    41888 nov  2 23:28 fort.95.pe09
-rw-r--r-- 1 erba users    41888 nov  2 23:28 fort.95.pe10
-rw-r--r-- 1 erba users    41888 nov  2 23:28 fort.95.pe11
-rw-r--r-- 1 erba users    41888 nov  2 23:28 fort.95.pe12
-rw-r--r-- 1 erba users    41888 nov  2 23:28 fort.95.pe13
-rw-r--r-- 1 erba users    41888 nov  2 23:28 fort.95.pe14
-rw-r--r-- 1 erba users    41888 nov  2 23:28 fort.95.pe15
-rw-r--r-- 1 erba users    41888 nov  2 23:28 fort.95.pe16
-rw-r--r-- 1 erba users    41888 nov  2 23:28 fort.95.pe17
-rw-r--r-- 1 erba users    41888 nov  2 23:28 fort.95.pe18
-rw-r--r-- 1 erba users    41888 nov  2 23:28 fort.95.pe19
-rw-r--r-- 1 erba users   831913 nov  2 23:28 fort.98
-rwxr-xr-x 1 erba users      995 nov  2 23:26 INPUT
-rw-r--r-- 1 erba users     2342 nov  2 23:28 opta001
-rwxr-xr-x 1 erba users 99919752 nov  2 23:26 Pcrystal-338145
lrwxrwxrwx 1 erba users       38 nov  2 23:26 SCFOUT.LOG -> /home/erba/Mitoli/ela/MgO/MgO_ela.out2
